default_name
 18502
  37.4322437  36.4245163  25.6983244  38.2332437  35.8355163  26.1443244
  38.5002437  36.2605163  27.1113244  39.0812437  35.6925163  25.4733244
  37.7402437  34.3555163  26.4523244  38.3792437  33.3515163  26.1263244
  36.5372437  34.3365163  27.0603244  36.0702437  35.1845163  27.3483244
  35.8822437  33.1575163  27.6073244  36.1332437  32.2895163  26.9983244
  36.3322437  32.8655163  29.0563244  37.4172437  32.9735163  29.0613244
  35.9402437  33.6655163  29.6843244  35.9552437  31.4165163  29.4663244
  36.7302437  30.3405163  29.0583244  37.6102437  30.5815163  28.4803244
  36.5672437  29.0125163  29.5583244  37.1962437  28.2445163  29.1323244
  35.6402437  28.7355163  30.5893244  35.4662437  27.4745163  30.9693244
  36.2012437  26.8925163  30.7643244  34.8802437  29.8295163  31.0433244
  34.2492437  29.6285163  31.8963244  34.9922437  31.1815163  30.4913244
  34.3862437  31.9745163  30.9043244  34.3532437  33.2845163  27.5893244
  33.7462437  34.3795163  27.5143244  33.6712437  32.2155163  27.6863244
  34.0952437  31.3005163  27.6313244  32.2142437  32.1185163  27.9753244
  31.6492437  32.4285163  27.0973244  31.9492437  30.6605163  28.1663244
  32.6042437  30.2995163  28.9593244  30.9052437  30.4725163  28.4163244
  32.3372437  29.7685163  27.0053244  31.5452437  29.8215163  25.8683244
  30.7452437  30.5455163  25.8363244  31.9352437  29.1055163  24.7273244
  31.3262437  29.2295163  23.8443244  33.0902437  28.2695163  24.6083244
  33.5982437  27.7835163  23.4513244  34.5552437  27.7105163  23.4653244
  33.8152437  28.1785163  25.8373244  34.7052437  27.5695163  25.7743244
  33.4472437  28.8255163  27.0403244  34.1542437  28.6405163  27.8343244
  31.7742437  33.0345163  29.1563244  32.2972437  33.0695163  30.3063244
  30.6862437  33.6925163  28.9503244  30.3122437  33.6345163  28.0133244
  30.1022437  34.6545163  29.8603244  30.3202437  34.2985163  30.8673244
  30.6432437  36.0395163  29.5933244  31.7122437  35.9975163  29.8043244
  30.4782437  36.3655163  28.5663244  29.9692437  37.1275163  30.5283244
  29.9942437  38.3685163  30.1993244  29.3512437  36.7175163  31.5193244
  28.5572437  34.6725163  29.6643244  28.0552437  35.2995163  28.7073244
  27.7772437  34.0075163  30.5633244  28.1422437  33.2995163  31.8003244
  28.7772437  33.8935163  32.4583244  28.7212437  32.4205163  31.5183244
  26.8782437  32.9315163  32.4663244  26.7892437  33.7625163  33.1653244
  26.8872437  31.9655163  32.9723244  25.7512437  33.0595163  31.4733244
  24.8412437  33.4965163  31.8833244  25.4492437  32.0985163  31.0583244
  26.3522437  34.0065163  30.4663244  26.0552437  33.6245163  29.4893244
  25.5832437  35.3465163  30.4163244  24.5462437  35.4815163  29.7653244
  26.2052437  36.4455163  30.9943244  27.1812437  36.3165163  31.2233244
  25.4522437  37.6735163  31.3533244  24.3992437  37.4045163  31.4363244
  25.9632437  38.0175163  32.7723244  27.0382437  38.1885163  32.7213244
  25.5372437  38.9655163  33.1003244  25.7992437  37.0135163  33.8963244
  26.2702437  36.0795163  33.5923244  26.3472437  37.3645163  34.7713244
  24.3582437  36.6745163  34.3623244  23.4272437  37.5075163  34.0433244
  24.1772437  35.7315163  35.1573244  25.6302437  38.8405163  30.3393244
  25.0172437  39.9285163  30.5223244  26.4262437  38.5505163  29.3173244
  26.8112437  37.6345163  29.5013244  26.5272437  39.2525163  28.0363244
  25.7502437  40.0135163  28.1133244  27.9192437  39.8525163  27.7743244
  27.9602437  40.3755163  26.8183244  28.2822437  40.9315163  28.8443244
  27.6202437  41.7935163  28.7663244  28.2862437  40.4355163  29.8143244
  29.3102437  41.2045163  28.6043244  28.8962437  38.8215163  27.8183244
  29.2672437  38.7705163  28.7023244  26.1092437  38.4065163  26.8263244
  26.2942437  38.8015163  25.6563244  25.5392437  37.2335163  27.0693244
  25.3382437  37.0095163  28.0333244  25.0372437  36.3395163  26.0443244
  24.2962437  35.6515163  26.4523244  24.4652437  36.9695163  25.3633244
  25.9852437  35.3925163  25.2883244  25.4852437  34.6135163  24.4893244
  27.3072437  35.4655163  25.6493244  27.4902437  36.2035163  26.3143244
  28.3672437  34.6495163  25.0573244  28.1352437  34.5025163  24.0023244
  29.7272437  35.4245163  25.1593244  29.9912437  35.3185163  26.2113244
  30.8352437  34.8645163  24.3083244  30.9652437  33.8155163  24.5743244
  30.5432437  34.8365163  23.2583244  31.7652437  35.4075163  24.4773244
  29.5682437  36.7655163  24.7703244  29.2212437  37.2925163  25.4943244
  28.4952437  33.2575163  25.7583244  29.3372437  32.9575163  26.5723244
  27.4922437  32.4075163  25.4323244  26.8712437  32.7635163  24.7193244
  27.1872437  31.1375163  26.0723244  27.9692437  31.0005163  26.8203244
  25.7522437  31.1625163  26.6773244  25.6212437  31.9905163  27.3743244
  25.0152437  31.2545163  25.8793244  25.3442437  30.0105163  27.5783244
  24.2992437  29.2025163  27.4363244  23.6162437  29.1575163  26.6003244
  24.0992437  28.4705163  28.5813244  23.3402437  27.8105163  28.6703244
  25.0242437  28.7205163  29.5963244  25.3652437  28.0765163  30.8273244
  24.8142437  27.2335163  31.2173244  26.5212437  28.4865163  31.4663244
  26.8372437  28.0525163  32.4043244  27.3032437  29.5485163  30.9603244
  28.1072437  30.0035163  31.5193244  27.0552437  30.0355163  29.6663244
  27.7442437  30.8295163  29.4173244  25.9232437  29.6235163  28.9083244
  27.1482437  30.0825163  24.9763244  26.8322437  30.2805163  23.7883244
  27.5942437  28.8375163  25.3473244  27.9462437  28.6705163  26.2783244
  27.7202437  27.6555163  24.4493244  28.1592437  28.0855163  23.5493244
  28.7022437  26.6425163  25.0753244  28.8042437  25.8335163  24.3513244
  29.6672437  27.1495163  25.0653244  28.3212437  25.9135163  26.3203244
  28.5592437  26.5675163  27.5843244  28.7222437  27.6315163  27.6783244
  28.4152437  25.8415163  28.7603244  28.6062437  26.2525163  29.7403244
  27.9512437  24.5015163  28.7043244  27.6382437  23.8065163  29.8383244
  27.1582437  23.0405163  29.5133244  27.6462437  23.8765163  27.4853244
  27.3222437  22.8465163  27.5023244  27.8692437  24.5695163  26.2913244
  27.7372437  24.1225163  25.3163244  26.3202437  27.0175163  24.1773244
  26.0412437  26.6195163  23.0733244  25.5012437  26.9145163  25.2553244
  25.8962437  27.2405163  26.1253244  24.0652437  26.4775163  25.2673244
  23.9582437  25.5375163  25.8073244  23.4162437  27.2045163  25.7563244
  23.6682437  26.4975163  24.2523244  17.8776160  35.8869930  35.8480010
  33.4641050  41.1670000  34.4863870  28.3676200  40.6063060  21.6357160
  23.3022400  43.6002670  35.6154750  25.9642160  30.7729080  17.7463440
  25.6029010  32.9040940  38.3706600  44.1439280  30.5170700  26.2213130
  28.4692690  14.5774990  33.4282970  15.8904170  21.6027460  21.6701990
  44.0997660  42.2298730  22.2622390  40.5147570  23.1905130  38.9832330
  37.4077320  21.5523770  14.5649020  15.1852120  42.9834730  23.2380530
  28.0274150  50.0534480  26.8301210  17.8910680  22.8510750  37.3703420
  27.7576570  16.8917020  18.8338370  45.3659520  39.1696460  32.6715450
  41.8862850  19.4096510  29.6233190  27.1489470  42.9911920  44.0293130
  36.6519650  17.1126440  35.8480010  40.8557680  45.3769620  29.3964260
  29.4450340  24.2887090  15.9383640  20.0930970  38.3828440  43.9126350
  44.4886220  28.0924570  34.3812560  22.0814190  45.3769620  29.3964260
  19.0832100  20.7508510  29.4175810  40.5147570  23.1905130  20.2088840
  30.8615340  48.9767730  38.4287820  48.8970460  37.4124350  26.9699970
  20.1230540  40.2155560  18.0362470  25.3254170  23.4555240  41.0365880
  32.4818440  17.2558820  27.1501770  33.8406470  37.9734130  42.8255740
  17.8776160  17.1126440  17.0736520  30.8615340  48.9767730  19.6544330
  13.5518720  29.8700010  36.1502500  54.2058010  61.7875730  49.0413350
  53.3742890  61.5324440  49.4409860  54.8138990  61.8586500  49.7771270
  52.6149960  56.7477620  42.8255740  51.7266660  57.0893590  42.7235620
  52.8991150  56.5477940  41.9336570  50.5782970  59.3483270  48.7095440
  51.1499080  58.5805470  48.7099080  50.5784510  59.6472030  47.8002050
  51.8207840  54.7567630  50.4964370  51.6410680  53.8593380  50.7767130
  51.4187920  55.3039500  51.1711320  54.7911350  55.3309120  43.8594120
  54.8978100  56.2312850  44.1662880  53.8803710  55.2827090  43.5688770
  52.4394510  57.2528130  49.1046710  53.1204620  57.5166500  49.7234110
  52.1242560  56.4129000  49.4384720  56.6319080  58.2995490  48.1919300
  57.1397300  58.7976460  48.8324320  57.1632320  57.5230690  48.0158660
  54.9155180  52.9394050  52.4582720  54.9173620  53.4566440  51.6528620
  54.0859490  52.4624230  52.4352650  56.1658030  62.5789230  50.6356220
  55.8327410  63.2058150  51.2777290  56.3424710  63.1051110  49.8557890
  54.5970510  54.6504010  50.4653170  54.9387320  55.4946060  50.1707040
  53.6586320  54.7987750  50.5818510  58.2798400  52.1386280  46.7897760
  58.5873380  51.5833170  46.0733260  57.3499100  52.2730740  46.6070750
  56.2735800  60.7299850  46.3077610  55.8692800  60.0177100  45.8123510
  56.3598920  60.3853090  47.1965650  54.9864420  57.5043060  50.0876650
  55.5379010  57.6138400  49.3129900  55.5007930  57.8780660  50.8031880
  54.6607150  61.0262420  53.6981990  54.5214920  61.8985220  54.0669390
  53.7788510  60.6835230  53.5529930  52.9740430  59.6244830  43.8084260
  52.8538030  60.3506920  43.1965530  52.6641320  58.8547740  43.3312170
  50.6125800  62.7959970  49.6152900  50.6906220  62.9308740  48.6708620
  51.2267480  62.0875860  49.8081020  55.4404090  52.9679900  47.1907930
  54.9972240  53.7489440  46.8592450  55.9989080  53.2909790  47.8978870
  59.7273900  55.8348420  52.7943250  59.2653270  56.0431440  53.6063190
  59.3252010  55.0207770  52.4913920  58.5562910  52.5890600  42.0713760
  57.9317090  52.5850470  42.7967070  58.4693030  51.7221560  41.6749730
  57.4779990  53.5127230  49.0497530  57.7752320  54.4190060  48.9689550
  58.0265550  53.0246010  48.4357100  55.2318310  58.0913470  44.9189180
  55.0059230  57.8750640  45.8235800  54.4510840  58.5241930  44.5735150
  57.6717520  58.9899050  55.5849450  57.5761120  58.0493780  55.4349850
  58.5149500  59.2114120  55.1897520  52.8028060  55.4012720  53.7383230
  52.4091450  56.2487930  53.9456010  52.1146460  54.7639090  53.9291870
  50.1045110  53.3241180  47.7713310  49.8158160  53.8944040  48.4838290
  50.8490870  52.8445630  48.1344540  50.2915340  57.2661300  38.9816030
  50.2090010  58.2092060  39.1231020  49.9398400  57.1236210  38.1028380
  58.0913470  56.0000330  48.0486380  58.0949530  55.5590280  47.1990920
  58.9864590  56.3217660  48.1558200  53.9415850  55.8826820  47.0080590
  53.6015900  56.3602050  47.7647640  53.1793170  55.4291940  46.6481690
  58.1533620  57.0012410  41.0393140  58.2746440  56.9598890  41.9878960
  57.7682130  57.8636560  40.8839870  57.1655120  59.3113550  40.4376440
  56.5972020  58.8631800  39.8112350  57.8744120  59.6706330  39.9041590
  58.3921440  60.0602110  49.7951790  58.7591570  59.5860680  50.5413130
  58.2026500  60.9343680  50.1360130  51.2561930  54.8045800  45.9245260
  50.9708850  54.4401470  46.7623880  51.1940790  54.0726260  45.3108400
  56.1820810  59.1010750  52.1136000  55.8777880  59.9802730  52.3386360
  57.1367270  59.1610540  52.1493440  54.7540000  62.9752120  46.3481660
  55.2718670  62.1720380  46.2938550  54.3024020  62.9131260  47.1898490
  52.2384540  59.9413490  53.2607360  51.8799480  60.6067340  53.8480700
  51.9439100  59.1097040  53.6319980  55.4397660  60.3997730  56.1446910
  55.1397800  60.5454910  55.2474730  56.2108900  59.8403020  56.0520300
  50.7492590  59.9404750  39.8841960  51.6187440  60.2229550  40.1677880
  50.2582910  60.7540620  39.7690770  57.9127400  61.3277960  44.0050240
  58.3690180  62.1383210  44.2310430  57.5615610  61.0101100  44.8368730
  53.8139180  51.6715610  44.4772760  53.6853810  51.6633510  45.4257680
  52.9901200  52.0098700  44.1263770  50.8133110  53.4306730  53.9379460
  50.0991630  53.6303650  54.5432070  51.2328150  52.6546300  54.3094260
  52.7339100  61.7578220  42.0124020  52.1267050  62.4977120  42.0219320
  53.2088450  61.8477580  41.1862220  57.6417950  57.1571930  43.9126350
  56.9334100  57.6258270  44.3539960  57.9262430  56.4993940  44.5471540
  59.2673880  58.5768630  51.9118880  59.7659130  59.0514450  52.5770730
  59.4096830  57.6532150  52.1188910  55.8452970  55.4657010  41.2877060
  56.6943500  55.9027160  41.2217250  55.4784240  55.7777270  42.1149120
  54.7444390  61.7189370  39.7612590  55.5107660  61.6070730  40.3238020
  54.8219080  61.0227340  39.1089360  53.4391150  59.1514440  40.4445480
  53.5194740  58.2041950  40.5562880  54.3310900  59.4821320  40.5506140
  50.9661950  60.9729360  55.6801650  51.4700970  60.3936640  56.2517880
  50.2269370  61.2569590  56.2178020  58.0199890  62.3800350  55.2137170
  57.2545560  62.9485350  55.1291840  58.2015850  62.0876560  54.3205400
  56.7763420  61.7154500  41.7355230  57.1979840  61.5494370  42.5786620
  56.9014260  60.9054730  41.2410370  54.9390840  57.6951050  54.5426210
  54.4087300  57.2042000  53.9149550  55.6078910  58.1235250  54.0084140
  59.2891060  60.7392110  38.9832330  59.8096720  60.0241130  38.6173480
  59.9359460  61.3777980  39.2832840  55.4263140  54.6613420  54.6223500
  55.3320010  54.0434170  53.8974370  54.8460530  55.3879710  54.3953410
  58.1924580  53.2186660  51.6550890  57.7441880  53.2410920  50.8096440
  57.5589780  52.8205680  52.2521190  58.5984130  62.1140990  52.2763330
  59.0172240  62.9573720  52.1039570  57.6792760  62.2513030  52.0470110
  55.6722320  57.7887730  38.6813390  55.4711380  56.9255090  39.0426730
  55.5014370  57.7021090  37.7434990  57.7016800  56.3878520  54.9176990
  58.2916490  56.0794370  55.6054810  56.8837040  55.9158270  55.0736890
  54.4705120  54.8888350  38.6691270  54.7731020  54.8955780  37.7610420
  55.2099710  54.5386210  39.1658930  57.6890050  53.8322970  39.6547470
  57.3412050  53.1546960  39.0749920  57.8902820  53.3712480  40.4690860
  51.0295690  60.3610620  46.0511840  50.3744530  60.0922260  45.4071540
  51.8673640  60.2515100  45.6013820  52.0671620  60.7463190  50.5915180
  52.4344660  60.6590590  51.4711200  51.4982440  59.9829740  50.4922040
  51.6187620  57.6572280  54.4973600  50.7243670  57.6239040  54.8367310
  52.1585170  57.8559070  55.2624850  50.2433770  57.5709550  41.9937170
  49.3397850  57.8339750  41.8188830  50.7274390  57.8420720  41.2137130
  52.7860980  56.6275090  39.9031550  53.4952680  56.2058310  39.4178830
  52.0700920  56.6950320  39.2714900  52.4335140  52.6814420  38.9434200
  53.1563270  53.2223360  39.2615420  52.7059660  52.4077840  38.0675740
  52.1227330  51.9320610  48.8456820  52.7703520  51.3817990  48.4051980
  52.5429170  52.1863760  49.6672630  51.8759330  52.0876280  51.5882140
  51.5274150  52.5440100  52.3540320  51.5447030  51.1933410  51.6704570
  59.3884150  53.2788160  55.1101560  59.3273040  53.8709990  55.8596970
  60.3284530  53.1714120  54.9651820  52.5479970  51.6152480  54.8632910
  53.0962960  51.4340530  54.0999020  52.6135280  50.8246590  55.3989220
  60.5141570  52.4160200  50.0156050  59.7313360  52.8905700  50.2952810
  60.2204500  51.5115030  49.9069230  51.8581980  52.7207680  42.5369770
  52.6161340  52.8336560  41.9633800  51.3959150  53.5576880  42.4913200
  58.3995790  54.8346950  45.5272080  57.5870300  54.4603840  45.1867960
  58.9037430  54.0792030  45.8293270  54.2307130  53.2471730  41.0771740
  54.7599890  52.4601530  40.9479690  54.8635450  53.9262920  41.3107270
  56.4244970  52.9846870  44.1317130  55.7947710  52.2834180  44.2987260
  55.8850110  53.7451000  43.9150290  56.5500530  52.2630850  56.5669620
  56.2684800  52.7664450  55.8030440  56.9320230  51.4652600  56.2011750
  54.2058010  61.7875730  30.2669860  53.3742890  61.5324440  30.6666370
  54.8138990  61.8586500  31.0027780  52.6149960  56.7477620  24.0512250
  51.7266660  57.0893590  23.9492130  52.8991150  56.5477940  23.1593080
  50.5782970  59.3483270  29.9351950  51.1499080  58.5805470  29.9355590
  50.5784510  59.6472030  29.0258560  51.8207840  54.7567630  31.7220880
  51.6410680  53.8593380  32.0023640  51.4187920  55.3039500  32.3967830
  54.7911350  55.3309120  25.0850630  54.8978100  56.2312850  25.3919390
  53.8803710  55.2827090  24.7945280  52.4394510  57.2528130  30.3303220
  53.1204620  57.5166500  30.9490620  52.1242560  56.4129000  30.6641230
  56.6319080  58.2995490  29.4175810  57.1397300  58.7976460  30.0580830
  57.1632320  57.5230690  29.2415170  54.9155180  52.9394050  33.6839230
  54.9173620  53.4566440  32.8785130  54.0859490  52.4624230  33.6609160
  56.1658030  62.5789230  31.8612730  55.8327410  63.2058150  32.5033800
  56.3424710  63.1051110  31.0814400  54.5970510  54.6504010  31.6909680
  54.9387320  55.4946060  31.3963550  53.6586320  54.7987750  31.8075020
  58.2798400  52.1386280  28.0154270  58.5873380  51.5833170  27.2989770
  57.3499100  52.2730740  27.8327260  56.2735800  60.7299850  27.5334120
  55.8692800  60.0177100  27.0380020  56.3598920  60.3853090  28.4222160
  54.9864420  57.5043060  31.3133160  55.5379010  57.6138400  30.5386410
  55.5007930  57.8780660  32.0288390  54.6607150  61.0262420  34.9238500
  54.5214920  61.8985220  35.2925900  53.7788510  60.6835230  34.7786440
  52.9740430  59.6244830  25.0340770  52.8538030  60.3506920  24.4222040
  52.6641320  58.8547740  24.5568680  50.6125800  62.7959970  30.8409410
  50.6906220  62.9308740  29.8965130  51.2267480  62.0875860  31.0337530
  55.4404090  52.9679900  28.4164440  54.9972240  53.7489440  28.0848960
  55.9989080  53.2909790  29.1235380  59.7273900  55.8348420  34.0199760
  59.2653270  56.0431440  34.8319700  59.3252010  55.0207770  33.7170430
  58.5562910  52.5890600  23.2970270  57.9317090  52.5850470  24.0223580
  58.4693030  51.7221560  22.9006240  57.4779990  53.5127230  30.2754040
  57.7752320  54.4190060  30.1946060  58.0265550  53.0246010  29.6613610
  55.2318310  58.0913470  26.1445690  55.0059230  57.8750640  27.0492310
  54.4510840  58.5241930  25.7991660  57.6717520  58.9899050  36.8105960
  57.5761120  58.0493780  36.6606360  58.5149500  59.2114120  36.4154030
  52.8028060  55.4012720  34.9639740  52.4091450  56.2487930  35.1712520
  52.1146460  54.7639090  35.1548380  59.3773110  55.4847690  38.0336480
  58.6871430  55.2919890  38.6682570  60.1205410  55.7682330  38.5660780
  50.1045110  53.3241180  28.9969820  49.8158160  53.8944040  29.7094800
  50.8490870  52.8445630  29.3601050  50.2915340  57.2661300  20.2072540
  50.2090010  58.2092060  20.3487530  49.9398400  57.1236210  19.3284890
  58.0913470  56.0000330  29.2742890  58.0949530  55.5590280  28.4247430
  58.9864590  56.3217660  29.3814710  53.9415850  55.8826820  28.2337100
  53.6015900  56.3602050  28.9904150  53.1793170  55.4291940  27.8738200
  58.1533620  57.0012410  22.2649650  58.2746440  56.9598890  23.2135470
  57.7682130  57.8636560  22.1096380  57.1655120  59.3113550  21.6632950
  56.5972020  58.8631800  21.0368860  57.8744120  59.6706330  21.1298100
  58.3921440  60.0602110  31.0208300  58.7591570  59.5860680  31.7669640
  58.2026500  60.9343680  31.3616640  51.2561930  54.8045800  27.1501770
  50.9708850  54.4401470  27.9880390  51.1940790  54.0726260  26.5364910
  56.1820810  59.1010750  33.3392510  55.8777880  59.9802730  33.5642870
  57.1367270  59.1610540  33.3749950  54.7540000  62.9752120  27.5738170
  55.2718670  62.1720380  27.5195060  54.3024020  62.9131260  28.4155000
  52.2384540  59.9413490  34.4863870  51.8799480  60.6067340  35.0737210
  51.9439100  59.1097040  34.8576490  55.4397660  60.3997730  37.3703420
  55.1397800  60.5454910  36.4731240  56.2108900  59.8403020  37.2776810
  50.7492590  59.9404750  21.1098470  51.6187440  60.2229550  21.3934390
  50.2582910  60.7540620  20.9947280  57.9127400  61.3277960  25.2306750
  58.3690180  62.1383210  25.4566940  57.5615610  61.0101100  26.0625240
  53.8139180  51.6715610  25.7029270  53.6853810  51.6633510  26.6514190
  52.9901200  52.0098700  25.3520280  50.8133110  53.4306730  35.1635970
  50.0991630  53.6303650  35.7688580  51.2328150  52.6546300  35.5350770
  52.7339100  61.7578220  23.2380530  52.1267050  62.4977120  23.2475830
  53.2088450  61.8477580  22.4118730  57.6417950  57.1571930  25.1382860
  56.9334100  57.6258270  25.5796470  57.9262430  56.4993940  25.7728050
  59.2673880  58.5768630  33.1375390  59.7659130  59.0514450  33.8027240
  59.4096830  57.6532150  33.3445420  55.8452970  55.4657010  22.5133570
  56.6943500  55.9027160  22.4473760  55.4784240  55.7777270  23.3405630
  54.7444390  61.7189370  20.9869100  55.5107660  61.6070730  21.5494530
  54.8219080  61.0227340  20.3345870  53.4391150  59.1514440  21.6701990
  53.5194740  58.2041950  21.7819390  54.3310900  59.4821320  21.7762650
  50.9661950  60.9729360  36.9058160  51.4700970  60.3936640  37.4774390
  50.2269370  61.2569590  37.4434530  58.0199890  62.3800350  36.4393680
  57.2545560  62.9485350  36.3548350  58.2015850  62.0876560  35.5461910
  52.9985030  59.1158950  37.8008230  53.0390370  58.8172820  38.7093460
  53.8530530  59.5166560  37.6415750  56.7763420  61.7154500  22.9611740
  57.1979840  61.5494370  23.8043130  56.9014260  60.9054730  22.4666880
  54.9390840  57.6951050  35.7682720  54.4087300  57.2042000  35.1406060
  55.6078910  58.1235250  35.2340650  59.2891060  60.7392110  20.2088840
  59.8096720  60.0241130  19.8429990  59.9359460  61.3777980  20.5089350
  55.4263140  54.6613420  35.8480010  55.3320010  54.0434170  35.1230880
  54.8460530  55.3879710  35.6209920  58.1924580  53.2186660  32.8807400
  57.7441880  53.2410920  32.0352950  57.5589780  52.8205680  33.4777700
  58.5984130  62.1140990  33.5019840  59.0172240  62.9573720  33.3296080
  57.6792760  62.2513030  33.2726620  55.6722320  57.7887730  19.9069900
  55.4711380  56.9255090  20.2683240  55.5014370  57.7021090  18.9691500
  57.7016800  56.3878520  36.1433500  58.2916490  56.0794370  36.8311320
  56.8837040  55.9158270  36.2993400  54.4705120  54.8888350  19.8947780
  54.7731020  54.8955780  18.9866930  55.2099710  54.5386210  20.3915440
  57.6890050  53.8322970  20.8803980  57.3412050  53.1546960  20.3006430
  57.8902820  53.3712480  21.6947370  51.0295690  60.3610620  27.2768350
  50.3744530  60.0922260  26.6328050  51.8673640  60.2515100  26.8270330
  52.0671620  60.7463190  31.8171690  52.4344660  60.6590590  32.6967710
  51.4982440  59.9829740  31.7178550  51.6187620  57.6572280  35.7230110
  50.7243670  57.6239040  36.0623820  52.1585170  57.8559070  36.4881360
  50.2433770  57.5709550  23.2193680  49.3397850  57.8339750  23.0445340
  50.7274390  57.8420720  22.4393640  52.7860980  56.6275090  21.1288060
  53.4952680  56.2058310  20.6435340  52.0700920  56.6950320  20.4971410
  52.4335140  52.6814420  20.1690710  53.1563270  53.2223360  20.4871930
  52.7059660  52.4077840  19.2932250  52.1227330  51.9320610  30.0713330
  52.7703520  51.3817990  29.6308490  52.5429170  52.1863760  30.8929140
  51.8759330  52.0876280  32.8138650  51.5274150  52.5440100  33.5796830
  51.5447030  51.1933410  32.8961080  59.3884150  53.2788160  36.3358070
  59.3273040  53.8709990  37.0853480  60.3284530  53.1714120  36.1908330
  52.5479970  51.6152480  36.0889420  53.0962960  51.4340530  35.3255530
  52.6135280  50.8246590  36.6245730  60.5141570  52.4160200  31.2412560
  59.7313360  52.8905700  31.5209320  60.2204500  51.5115030  31.1325740
  51.8581980  52.7207680  23.7626280  52.6161340  52.8336560  23.1890310
  51.3959150  53.5576880  23.7169710  58.3995790  54.8346950  26.7528590
  57.5870300  54.4603840  26.4124470  58.9037430  54.0792030  27.0549780
  54.2307130  53.2471730  22.3028250  54.7599890  52.4601530  22.1736200
  54.8635450  53.9262920  22.5363780  56.4244970  52.9846870  25.3573640
  55.7947710  52.2834180  25.5243770  55.8850110  53.7451000  25.1406800
  56.5500530  52.2630850  37.7926130  56.2684800  52.7664450  37.0286950
  56.9320230  51.4652600  37.4268260  54.2058010  61.7875730  11.4926370
  53.3742890  61.5324440  11.8922880  54.8138990  61.8586500  12.2284290
  52.6149960  56.7477620   5.2768760  51.7266660  57.0893590   5.1748640
  52.8991150  56.5477940   4.3849590  50.5782970  59.3483270  11.1608460
  51.1499080  58.5805470  11.1612100  50.5784510  59.6472030  10.2515070
  51.8207840  54.7567630  12.9477390  51.6410680  53.8593380  13.2280150
  51.4187920  55.3039500  13.6224340  54.7911350  55.3309120   6.3107140
  54.8978100  56.2312850   6.6175900  53.8803710  55.2827090   6.0201790
  52.4394510  57.2528130  11.5559730  53.1204620  57.5166500  12.1747130
  52.1242560  56.4129000  11.8897740  56.6319080  58.2995490  10.6432320
  57.1397300  58.7976460  11.2837340  57.1632320  57.5230690  10.4671680
  54.9155180  52.9394050  14.9095740  54.9173620  53.4566440  14.1041640
  54.0859490  52.4624230  14.8865670  56.1658030  62.5789230  13.0869240
  55.8327410  63.2058150  13.7290310  56.3424710  63.1051110  12.3070910
  54.5970510  54.6504010  12.9166190  54.9387320  55.4946060  12.6220060
  53.6586320  54.7987750  13.0331530  58.2798400  52.1386280   9.2410780
  58.5873380  51.5833170   8.5246280  57.3499100  52.2730740   9.0583770
  56.2735800  60.7299850   8.7590630  55.8692800  60.0177100   8.2636530
  56.3598920  60.3853090   9.6478670  54.9864420  57.5043060  12.5389670
  55.5379010  57.6138400  11.7642920  55.5007930  57.8780660  13.2544900
  54.6607150  61.0262420  16.1495010  54.5214920  61.8985220  16.5182410
  53.7788510  60.6835230  16.0042950  52.9740430  59.6244830   6.2597280
  52.8538030  60.3506920   5.6478550  52.6641320  58.8547740   5.7825190
  50.6125800  62.7959970  12.0665920  50.6906220  62.9308740  11.1221640
  51.2267480  62.0875860  12.2594040  55.4404090  52.9679900   9.6420950
  54.9972240  53.7489440   9.3105470  55.9989080  53.2909790  10.3491890
  59.7273900  55.8348420  15.2456270  59.2653270  56.0431440  16.0576210
  59.3252010  55.0207770  14.9426940  58.5562910  52.5890600   4.5226780
  57.9317090  52.5850470   5.2480090  58.4693030  51.7221560   4.1262750
  57.4779990  53.5127230  11.5010550  57.7752320  54.4190060  11.4202570
  58.0265550  53.0246010  10.8870120  55.2318310  58.0913470   7.3702200
  55.0059230  57.8750640   8.2748820  54.4510840  58.5241930   7.0248170
  57.6717520  58.9899050  18.0362470  57.5761120  58.0493780  17.8862870
  58.5149500  59.2114120  17.6410540  52.8028060  55.4012720  16.1896250
  52.4091450  56.2487930  16.3969030  52.1146460  54.7639090  16.3804890
  59.3773110  55.4847690  19.2592990  58.6871430  55.2919890  19.8939080
  60.1205410  55.7682330  19.7917290  50.1045110  53.3241180  10.2226330
  49.8158160  53.8944040  10.9351310  50.8490870  52.8445630  10.5857560
  58.0913470  56.0000330  10.4999400  58.0949530  55.5590280   9.6503940
  58.9864590  56.3217660  10.6071220  53.9415850  55.8826820   9.4593610
  53.6015900  56.3602050  10.2160660  53.1793170  55.4291940   9.0994710
  58.1533620  57.0012410   3.4906160  58.2746440  56.9598890   4.4391980
  57.7682130  57.8636560   3.3352890  57.1655120  59.3113550   2.8889460
  56.5972020  58.8631800   2.2625370  57.8744120  59.6706330   2.3554610
  58.3921440  60.0602110  12.2464810  58.7591570  59.5860680  12.9926150
  58.2026500  60.9343680  12.5873150  51.2561930  54.8045800   8.3758280
  50.9708850  54.4401470   9.2136900  51.1940790  54.0726260   7.7621420
  56.1820810  59.1010750  14.5649020  55.8777880  59.9802730  14.7899380
  57.1367270  59.1610540  14.6006460  54.7540000  62.9752120   8.7994680
  55.2718670  62.1720380   8.7451570  54.3024020  62.9131260   9.6411510
  52.2384540  59.9413490  15.7120380  51.8799480  60.6067340  16.2993720
  51.9439100  59.1097040  16.0833000  55.4397660  60.3997730  18.5959930
  55.1397800  60.5454910  17.6987750  56.2108900  59.8403020  18.5033320
  50.7492590  59.9404750   2.3354980  51.6187440  60.2229550   2.6190900
  50.2582910  60.7540620   2.2203790  57.9127400  61.3277960   6.4563260
  58.3690180  62.1383210   6.6823450  57.5615610  61.0101100   7.2881750
  53.8139180  51.6715610   6.9285780  53.6853810  51.6633510   7.8770700
  52.9901200  52.0098700   6.5776790  50.8133110  53.4306730  16.3892480
  50.0991630  53.6303650  16.9945090  51.2328150  52.6546300  16.7607280
  52.7339100  61.7578220   4.4637040  52.1267050  62.4977120   4.4732340
  53.2088450  61.8477580   3.6375240  57.6417950  57.1571930   6.3639370
  56.9334100  57.6258270   6.8052980  57.9262430  56.4993940   6.9984560
  59.2673880  58.5768630  14.3631900  59.7659130  59.0514450  15.0283750
  59.4096830  57.6532150  14.5701930  55.8452970  55.4657010   3.7390080
  56.6943500  55.9027160   3.6730270  55.4784240  55.7777270   4.5662140
  54.7444390  61.7189370   2.2125610  55.5107660  61.6070730   2.7751040
  54.8219080  61.0227340   1.5602380  53.4391150  59.1514440   2.8958500
  53.5194740  58.2041950   3.0075900  54.3310900  59.4821320   3.0019160
  50.9661950  60.9729360  18.1314670  51.4700970  60.3936640  18.7030900
  50.2269370  61.2569590  18.6691040  58.0199890  62.3800350  17.6650190
  57.2545560  62.9485350  17.5804860  58.2015850  62.0876560  16.7718420
  52.9985030  59.1158950  19.0264740  53.0390370  58.8172820  19.9349970
  53.8530530  59.5166560  18.8672260  56.7763420  61.7154500   4.1868250
  57.1979840  61.5494370   5.0299640  56.9014260  60.9054730   3.6923390
  54.9390840  57.6951050  16.9939230  54.4087300  57.2042000  16.3662570
  55.6078910  58.1235250  16.4597160  55.4263140  54.6613420  17.0736520
  55.3320010  54.0434170  16.3487390  54.8460530  55.3879710  16.8466430
  58.1924580  53.2186660  14.1063910  57.7441880  53.2410920  13.2609460
  57.5589780  52.8205680  14.7034210  58.5984130  62.1140990  14.7276350
  59.0172240  62.9573720  14.5552590  57.6792760  62.2513030  14.4983130
  57.7016800  56.3878520  17.3690010  58.2916490  56.0794370  18.0567830
  56.8837040  55.9158270  17.5249910  57.6890050  53.8322970   2.1060490
  57.3412050  53.1546960   1.5262940  57.8902820  53.3712480   2.9203880
  51.0295690  60.3610620   8.5024860  50.3744530  60.0922260   7.8584560
  51.8673640  60.2515100   8.0526840  52.0671620  60.7463190  13.0428200
  52.4344660  60.6590590  13.9224220  51.4982440  59.9829740  12.9435060
  51.6187620  57.6572280  16.9486620  50.7243670  57.6239040  17.2880330
  52.1585170  57.8559070  17.7137870  50.2433770  57.5709550   4.4450190
  49.3397850  57.8339750   4.2701850  50.7274390  57.8420720   3.6650150
  52.7860980  56.6275090   2.3544570  53.4952680  56.2058310   1.8691850
  52.0700920  56.6950320   1.7227920  52.1227330  51.9320610  11.2969840
  52.7703520  51.3817990  10.8565000  52.5429170  52.1863760  12.1185650
  51.8759330  52.0876280  14.0395160  51.5274150  52.5440100  14.8053340
  51.5447030  51.1933410  14.1217590  59.3884150  53.2788160  17.5614580
  59.3273040  53.8709990  18.3109990  60.3284530  53.1714120  17.4164840
  52.5479970  51.6152480  17.3145930  53.0962960  51.4340530  16.5512040
  52.6135280  50.8246590  17.8502240  60.5141570  52.4160200  12.4669070
  59.7313360  52.8905700  12.7465830  60.2204500  51.5115030  12.3582250
  51.8581980  52.7207680   4.9882790  52.6161340  52.8336560   4.4146820
  51.3959150  53.5576880   4.9426220  58.3995790  54.8346950   7.9785100
  57.5870300  54.4603840   7.6380980  58.9037430  54.0792030   8.2806290
  54.2307130  53.2471730   3.5284760  54.7599890  52.4601530   3.3992710
  54.8635450  53.9262920   3.7620290  56.4244970  52.9846870   6.5830150
  55.7947710  52.2834180   6.7500280  55.8850110  53.7451000   6.3663310
  56.5500530  52.2630850  19.0182640  56.2684800  52.7664450  18.2543460
  56.9320230  51.4652600  18.6524770  54.2058010  43.0132240  49.0413350
  53.3742890  42.7580950  49.4409860  54.8138990  43.0843010  49.7771270
  54.1859270  47.0472330  49.2371370  54.4887310  46.1570070  49.0581590
  54.9302860  47.6042550  49.0093620  52.6149960  37.9734130  42.8255740
  51.7266660  38.3150100  42.7235620  52.8991150  37.7734450  41.9336570
  50.5782970  40.5739780  48.7095440  51.1499080  39.8061980  48.7099080
  50.5784510  40.8728540  47.8002050  59.6301170  45.3769620  48.1707750
  59.5609450  44.4359560  48.0096880  60.3921030  45.4671030  48.7430320
  51.8207840  35.9824140  50.4964370  51.6410680  35.0849890  50.7767130
  51.4187920  36.5296010  51.1711320  54.7911350  36.5565630  43.8594120
  54.8978100  37.4569360  44.1662880  53.8803710  36.5083600  43.5688770
  52.4394510  38.4784640  49.1046710  53.1204620  38.7423010  49.7234110
  52.1242560  37.6385510  49.4384720  56.6319080  39.5252000  48.1919300
  57.1397300  40.0232970  48.8324320  57.1632320  38.7487200  48.0158660
  54.9155180  34.1650560  52.4582720  54.9173620  34.6822950  51.6528620
  54.0859490  33.6880740  52.4352650  56.1658030  43.8045740  50.6356220
  55.8327410  44.4314660  51.2777290  56.3424710  44.3307620  49.8557890
  54.5970510  35.8760520  50.4653170  54.9387320  36.7202570  50.1707040
  53.6586320  36.0244260  50.5818510  55.3777130  45.7726540  52.4505400
  55.9951130  46.4477620  52.1689850  54.5170250  46.1814520  52.3592900
  50.6709470  44.9626400  41.3312250  50.2937450  45.4513500  40.5997150
  50.9282540  45.6351680  41.9618780  58.2798400  33.3642790  46.7897760
  58.5873380  32.8089680  46.0733260  57.3499100  33.4987250  46.6070750
  56.2735800  41.9556360  46.3077610  55.8692800  41.2433610  45.8123510
  56.3598920  41.6109600  47.1965650  56.7417500  45.6423920  48.4716820
  56.4445790  45.0369390  47.7924600  57.6917320  45.6801230  48.3606180
  54.9864420  38.7299570  50.0876650  55.5379010  38.8394910  49.3129900
  55.5007930  39.1037170  50.8031880  55.8335930  45.3805610  55.1224620
  54.9364460  45.6045580  55.3698020  55.8588800  45.5040550  54.1736020
  54.6607150  42.2518930  53.6981990  54.5214920  43.1241730  54.0669390
  53.7788510  41.9091740  53.5529930  56.4587500  48.1940630  55.9067140
  56.4302930  48.5983580  55.0395570  56.2952470  47.2650990  55.7438740
  52.9740430  40.8501340  43.8084260  52.8538030  41.5763430  43.1965530
  52.6641320  40.0804250  43.3312170  50.6125800  44.0216480  49.6152900
  50.6906220  44.1565250  48.6708620  51.2267480  43.3132370  49.8081020
  51.8573430  45.7216670  46.0259080  51.4501510  45.8631260  45.1712680
  52.7486440  45.4376830  45.8230290  56.1295090  49.9362450  44.1381750
  55.9537570  49.0197990  43.9249550  55.2750830  50.2949740  44.3779550
  50.6685320  45.0630650  52.1547360  50.8316360  44.5936010  51.3366730
  51.1337770  44.5554210  52.8196200  55.4404090  34.1936410  47.1907930
  54.9972240  34.9745950  46.8592450  55.9989080  34.5166300  47.8978870
  59.7273900  37.0604930  52.7943250  59.2653270  37.2687950  53.6063190
  59.3252010  36.2464280  52.4913920  58.5562910  33.8147110  42.0713760
  57.9317090  33.8106980  42.7967070  58.4693030  32.9478070  41.6749730
  57.4779990  34.7383740  49.0497530  57.7752320  35.6446570  48.9689550
  58.0265550  34.2502520  48.4357100  55.2318310  39.3169980  44.9189180
  55.0059230  39.1007150  45.8235800  54.4510840  39.7498440  44.5735150
  57.6717520  40.2155560  55.5849450  57.5761120  39.2750290  55.4349850
  58.5149500  40.4370630  55.1897520  52.8028060  36.6269230  53.7383230
  52.4091450  37.4744440  53.9456010  52.1146460  35.9895600  53.9291870
  50.1045110  34.5497690  47.7713310  49.8158160  35.1200550  48.4838290
  50.8490870  34.0702140  48.1344540  50.2915340  38.4917810  38.9816030
  50.2090010  39.4348570  39.1231020  49.9398400  38.3492720  38.1028380
  58.0913470  37.2256840  48.0486380  58.0949530  36.7846790  47.1990920
  58.9864590  37.5474170  48.1558200  53.9415850  37.1083330  47.0080590
  53.6015900  37.5858560  47.7647640  53.1793170  36.6548450  46.6481690
  58.1533620  38.2268920  41.0393140  58.2746440  38.1855400  41.9878960
  57.7682130  39.0893070  40.8839870  57.1655120  40.5370060  40.4376440
  56.5972020  40.0888310  39.8112350  57.8744120  40.8962840  39.9041590
  52.2424300  44.4382080  54.3143170  51.8579090  43.7975750  54.9126130
  52.5536490  45.1418200  54.8837900  58.3921440  41.2858620  49.7951790
  58.7591570  40.8117190  50.5413130  58.2026500  42.1600190  50.1360130
  51.2561930  36.0302310  45.9245260  50.9708850  35.6657980  46.7623880
  51.1940790  35.2982770  45.3108400  56.1820810  40.3267260  52.1136000
  55.8777880  41.2059240  52.3386360  57.1367270  40.3867050  52.1493440
  54.7102600  44.5328250  42.7102850  53.9364860  43.9925870  42.5501570
  55.4397230  44.0134860  42.3720610  54.7540000  44.2008630  46.3481660
  55.2718670  43.3976890  46.2938550  54.3024020  44.1387770  47.1898490
  59.6409500  45.4674910  41.6208960  59.9825200  46.2117140  41.1252280
  58.8122210  45.7806030  41.9833790  52.2384540  41.1670000  53.2607360
  51.8799480  41.8323850  53.8480700  51.9439100  40.3353550  53.6319980
  55.4397660  41.6254240  56.1446910  55.1397800  41.7711420  55.2474730
  56.2108900  41.0659530  56.0520300  58.6100190  45.5488440  44.3924880
  59.2971320  46.0957650  44.7732470  57.8232610  46.0929170  44.4274490
  50.7492590  41.1661260  39.8841960  51.6187440  41.4486060  40.1677880
  50.2582910  41.9797130  39.7690770  57.9127400  42.5534470  44.0050240
  58.3690180  43.3639720  44.2310430  57.5615610  42.2357610  44.8368730
  53.8139180  32.8972120  44.4772760  53.6853810  32.8890020  45.4257680
  52.9901200  33.2355210  44.1263770  51.1163840  50.3788640  40.4503590
  51.4761480  50.9777980  39.7960860  50.9756180  50.9248530  41.2238620
  50.8133110  34.6563240  53.9379460  50.0991630  34.8560160  54.5432070
  51.2328150  33.8802810  54.3094260  51.1005700  48.6443500  54.9245990
  51.2096820  47.7038240  54.7841380  50.4486260  48.9098250  54.2759720
  57.1332460  47.7619840  41.2677260  57.1242560  48.4949530  40.6521770
  56.2130820  47.5151420  41.3604220  52.7339100  42.9834730  42.0124020
  52.1267050  43.7233630  42.0219320  53.2088450  43.0734090  41.1862220
  60.1192060  47.8248080  39.9302450  60.2204040  47.6212070  39.0004430
  59.2193800  47.5706360  40.1350230  57.6417950  38.3828440  43.9126350
  56.9334100  38.8514780  44.3539960  57.9262430  37.7250450  44.5471540
  59.2673880  39.8025140  51.9118880  59.7659130  40.2770960  52.5770730
  59.4096830  38.8788660  52.1188910  58.7610170  50.3434400  44.6250120
  59.0151670  50.3055790  43.7029490  57.8122650  50.2167730  44.6178370
  55.8452970  36.6913520  41.2877060  56.6943500  37.1283670  41.2217250
  55.4784240  37.0033780  42.1149120  54.7444390  42.9445880  39.7612590
  55.5107660  42.8327240  40.3238020  54.8219080  42.2483850  39.1089360
  53.4391150  40.3770950  40.4445480  53.5194740  39.4298460  40.5562880
  54.3310900  40.7077830  40.5506140  54.2405860  50.5266340  47.5480020
  54.9768340  49.9781800  47.8188590  54.6246780  51.3922350  47.4086010
  51.1251340  46.5939910  43.4221530  50.1991120  46.8361050  43.4126940
  51.5907770  47.4214170  43.3006280  57.3508170  49.6996650  39.3705590
  58.1436780  49.9885480  38.9187380  56.8312520  49.2688820  38.6918070
  50.9661950  42.1985870  55.6801650  51.4700970  41.6193150  56.2517880
  50.2269370  42.4826100  56.2178020  57.8685570  44.9200060  39.2347940
  57.7636210  44.3052410  39.9609320  57.7009790  44.3965950  38.4510950
  58.0199890  43.6056860  55.2137170  57.2545560  44.1741860  55.1291840
  58.2015850  43.3133070  54.3205400  56.7763420  42.9411010  41.7355230
  57.1979840  42.7750880  42.5786620  56.9014260  42.1311240  41.2410370
  54.9390840  38.9207560  54.5426210  54.4087300  38.4298510  53.9149550
  55.6078910  39.3491760  54.0084140  59.2891060  41.9648620  38.9832330
  59.8096720  41.2497640  38.6173480  59.9359460  42.6034490  39.2832840
  55.4263140  35.8869930  54.6223500  55.3320010  35.2690680  53.8974370
  54.8460530  36.6136220  54.3953410  58.1924580  34.4443170  51.6550890
  57.7441880  34.4667430  50.8096440  57.5589780  34.0462190  52.2521190
  58.5984130  43.3397500  52.2763330  59.0172240  44.1830230  52.1039570
  57.6792760  43.4769540  52.0470110  55.6722320  39.0144240  38.6813390
  55.4711380  38.1511600  39.0426730  55.5014370  38.9277600  37.7434990
  56.4491550  49.6450510  53.3921060  55.9112640  50.3696570  53.0729760
  56.7025510  49.1680850  52.6018400  57.7016800  37.6135030  54.9176990
  58.2916490  37.3050880  55.6054810  56.8837040  37.1414780  55.0736890
  54.4705120  36.1144860  38.6691270  54.7731020  36.1212290  37.7610420
  55.2099710  35.7642720  39.1658930  59.3053760  50.8801720  53.6507710
  59.2312460  51.7836860  53.9580080  58.4032600  50.5613620  53.6229780
  57.6890050  35.0579480  39.6547470  57.3412050  34.3803470  39.0749920
  57.8902820  34.5968990  40.4690860  53.4935250  45.4187280  39.5021070
  53.9310120  45.9616950  40.1578650  53.9782980  44.5934230  39.5117410
  50.7081050  48.2076310  46.9541330  51.0384060  47.3397370  46.7219970
  51.1372050  48.4134830  47.7846290  55.3042970  46.5385320  44.6143300
  55.0038510  46.4150290  45.5147210  55.1980460  45.6793910  44.2059030
  51.1971260  49.0746900  49.6922960  50.7602250  49.2547700  50.5247110
  51.7648940  49.8321520  49.5504680  51.0295690  41.5867130  46.0511840
  50.3744530  41.3178770  45.4071540  51.8673640  41.4771610  45.6013820
  52.0671620  41.9719700  50.5915180  52.4344660  41.8847100  51.4711200
  51.4982440  41.2086250  50.4922040  51.6187620  38.8828790  54.4973600
  50.7243670  38.8495550  54.8367310  52.1585170  39.0815580  55.2624850
  50.2433770  38.7966060  41.9937170  49.3397850  39.0596260  41.8188830
  50.7274390  39.0677230  41.2137130  52.7860980  37.8531600  39.9031550
  53.4952680  37.4314820  39.4178830  52.0700920  37.9206830  39.2714900
  52.4335140  33.9070930  38.9434200  53.1563270  34.4479870  39.2615420
  52.7059660  33.6334350  38.0675740  52.1227330  33.1577120  48.8456820
  52.7703520  32.6074500  48.4051980  52.5429170  33.4120270  49.6672630
  51.8759330  33.3132790  51.5882140  51.5274150  33.7696610  52.3540320
  51.5447030  32.4189920  51.6704570  53.4823700  46.4852390  55.7535330
  53.4393330  46.1145300  56.6349790  53.6134710  47.4229960  55.8937150
  57.1829730  48.0411980  51.3545050  56.9421090  48.3086540  50.4675570
  58.1232370  48.2117710  51.4095910  59.3884150  34.5044670  55.1101560
  59.3273040  35.0966500  55.8596970  60.3284530  34.3970630  54.9651820
  52.5479970  32.8408990  54.8632910  53.0962960  32.6597040  54.0999020
  52.6135280  32.0503100  55.3989220  53.3211730  49.4314640  52.8733110
  52.7272050  49.2999340  53.6123150  53.3135570  48.5952780  52.4075210
  52.9523960  46.7973020  51.8241150  52.2258020  46.1778310  51.7567100
  53.0133110  47.1913630  50.9539230  56.5569060  49.0118020  48.6090560
  57.0734080  48.4005380  48.0838820  57.2066440  49.5146800  49.1001570
  59.2964560  49.9026510  49.4359540  59.5842370  49.6480810  48.5592550
  59.8087780  49.3503870  50.0265110  60.5141570  33.6416710  50.0156050
  59.7313360  34.1162210  50.2952810  60.2204500  32.7371540  49.9069230
  51.2353960  50.1147410  45.0337910  51.0676000  49.4818090  45.7319800
  50.3688470  50.3206810  44.6832100  51.8581980  33.9464190  42.5369770
  52.6161340  34.0593070  41.9633800  51.3959150  34.7833390  42.4913200
  58.3995790  36.0603460  45.5272080  57.5870300  35.6860350  45.1867960
  58.9037430  35.3048540  45.8293270  52.8416660  48.8080640  42.4788050
  52.3164280  49.1888670  41.7750010  52.7661240  49.4331410  43.1997760
  54.2307130  34.4728240  41.0771740  54.7599890  33.6858040  40.9479690
  54.8635450  35.1519430  41.3107270  56.4244970  34.2103380  44.1317130
  55.7947710  33.5090690  44.2987260  55.8850110  34.9707510  43.9150290
  56.5500530  33.4887360  56.5669620  56.2684800  33.9920960  55.8030440
  56.9320230  32.6909110  56.2011750  55.4409630  50.7563020  41.3537300
  56.1728450  50.4722300  40.8061190  55.7003300  50.5176300  42.2436680
  54.6024420  46.8727750  41.3583630  53.9733300  47.3412850  41.9069460
  54.7172250  46.0276970  41.7929820  54.2058010  43.0132240  30.2669860
  53.3742890  42.7580950  30.6666370  54.8138990  43.0843010  31.0027780
  54.1859270  47.0472330  30.4627880  54.4887310  46.1570070  30.2838100
  54.9302860  47.6042550  30.2350130  52.6149960  37.9734130  24.0512250
  51.7266660  38.3150100  23.9492130  52.8991150  37.7734450  23.1593080
  50.5782970  40.5739780  29.9351950  51.1499080  39.8061980  29.9355590
  50.5784510  40.8728540  29.0258560  59.6301170  45.3769620  29.3964260
  59.5609450  44.4359560  29.2353390  60.3921030  45.4671030  29.9686830
  51.8207840  35.9824140  31.7220880  51.6410680  35.0849890  32.0023640
  51.4187920  36.5296010  32.3967830  54.7911350  36.5565630  25.0850630
  54.8978100  37.4569360  25.3919390  53.8803710  36.5083600  24.7945280
  52.4394510  38.4784640  30.3303220  53.1204620  38.7423010  30.9490620
  52.1242560  37.6385510  30.6641230  56.6319080  39.5252000  29.4175810
  57.1397300  40.0232970  30.0580830  57.1632320  38.7487200  29.2415170
  54.9155180  34.1650560  33.6839230  54.9173620  34.6822950  32.8785130
  54.0859490  33.6880740  33.6609160  56.1658030  43.8045740  31.8612730
  55.8327410  44.4314660  32.5033800  56.3424710  44.3307620  31.0814400
  54.5970510  35.8760520  31.6909680  54.9387320  36.7202570  31.3963550
  53.6586320  36.0244260  31.8075020  55.3777130  45.7726540  33.6761910
  55.9951130  46.4477620  33.3946360  54.5170250  46.1814520  33.5849410
  50.6709470  44.9626400  22.5568760  50.2937450  45.4513500  21.8253660
  50.9282540  45.6351680  23.1875290  58.2798400  33.3642790  28.0154270
  58.5873380  32.8089680  27.2989770  57.3499100  33.4987250  27.8327260
  56.2735800  41.9556360  27.5334120  55.8692800  41.2433610  27.0380020
  56.3598920  41.6109600  28.4222160  56.7417500  45.6423920  29.6973330
  56.4445790  45.0369390  29.0181110  57.6917320  45.6801230  29.5862690
  54.9864420  38.7299570  31.3133160  55.5379010  38.8394910  30.5386410
  55.5007930  39.1037170  32.0288390  55.8335930  45.3805610  36.3481130
  54.9364460  45.6045580  36.5954530  55.8588800  45.5040550  35.3992530
  54.6607150  42.2518930  34.9238500  54.5214920  43.1241730  35.2925900
  53.7788510  41.9091740  34.7786440  56.4587500  48.1940630  37.1323650
  56.4302930  48.5983580  36.2652080  56.2952470  47.2650990  36.9695250
  52.9740430  40.8501340  25.0340770  52.8538030  41.5763430  24.4222040
  52.6641320  40.0804250  24.5568680  50.6125800  44.0216480  30.8409410
  50.6906220  44.1565250  29.8965130  51.2267480  43.3132370  31.0337530
  51.8573430  45.7216670  27.2515590  51.4501510  45.8631260  26.3969190
  52.7486440  45.4376830  27.0486800  56.1295090  49.9362450  25.3638260
  55.9537570  49.0197990  25.1506060  55.2750830  50.2949740  25.6036060
  50.6685320  45.0630650  33.3803870  50.8316360  44.5936010  32.5623240
  51.1337770  44.5554210  34.0452710  55.4404090  34.1936410  28.4164440
  54.9972240  34.9745950  28.0848960  55.9989080  34.5166300  29.1235380
  59.7273900  37.0604930  34.0199760  59.2653270  37.2687950  34.8319700
  59.3252010  36.2464280  33.7170430  58.5562910  33.8147110  23.2970270
  57.9317090  33.8106980  24.0223580  58.4693030  32.9478070  22.9006240
  57.4779990  34.7383740  30.2754040  57.7752320  35.6446570  30.1946060
  58.0265550  34.2502520  29.6613610  55.2318310  39.3169980  26.1445690
  55.0059230  39.1007150  27.0492310  54.4510840  39.7498440  25.7991660
  57.6717520  40.2155560  36.8105960  57.5761120  39.2750290  36.6606360
  58.5149500  40.4370630  36.4154030  52.8028060  36.6269230  34.9639740
  52.4091450  37.4744440  35.1712520  52.1146460  35.9895600  35.1548380
  59.3773110  36.7104200  38.0336480  58.6871430  36.5176400  38.6682570
  60.1205410  36.9938840  38.5660780  50.1045110  34.5497690  28.9969820
  49.8158160  35.1200550  29.7094800  50.8490870  34.0702140  29.3601050
  50.2915340  38.4917810  20.2072540  50.2090010  39.4348570  20.3487530
  49.9398400  38.3492720  19.3284890  58.0913470  37.2256840  29.2742890
  58.0949530  36.7846790  28.4247430  58.9864590  37.5474170  29.3814710
  53.9415850  37.1083330  28.2337100  53.6015900  37.5858560  28.9904150
  53.1793170  36.6548450  27.8738200  58.1533620  38.2268920  22.2649650
  58.2746440  38.1855400  23.2135470  57.7682130  39.0893070  22.1096380
  57.1655120  40.5370060  21.6632950  56.5972020  40.0888310  21.0368860
  57.8744120  40.8962840  21.1298100  52.2424300  44.4382080  35.5399680
  51.8579090  43.7975750  36.1382640  52.5536490  45.1418200  36.1094410
  58.3921440  41.2858620  31.0208300  58.7591570  40.8117190  31.7669640
  58.2026500  42.1600190  31.3616640  51.2561930  36.0302310  27.1501770
  50.9708850  35.6657980  27.9880390  51.1940790  35.2982770  26.5364910
  56.1820810  40.3267260  33.3392510  55.8777880  41.2059240  33.5642870
  57.1367270  40.3867050  33.3749950  54.7102600  44.5328250  23.9359360
  53.9364860  43.9925870  23.7758080  55.4397230  44.0134860  23.5977120
  54.7540000  44.2008630  27.5738170  55.2718670  43.3976890  27.5195060
  54.3024020  44.1387770  28.4155000  59.6409500  45.4674910  22.8465470
  59.9825200  46.2117140  22.3508790  58.8122210  45.7806030  23.2090300
  52.2384540  41.1670000  34.4863870  51.8799480  41.8323850  35.0737210
  51.9439100  40.3353550  34.8576490  55.4397660  41.6254240  37.3703420
  55.1397800  41.7711420  36.4731240  56.2108900  41.0659530  37.2776810
  58.6100190  45.5488440  25.6181390  59.2971320  46.0957650  25.9988980
  57.8232610  46.0929170  25.6531000  50.7492590  41.1661260  21.1098470
  51.6187440  41.4486060  21.3934390  50.2582910  41.9797130  20.9947280
  57.9127400  42.5534470  25.2306750  58.3690180  43.3639720  25.4566940
  57.5615610  42.2357610  26.0625240  53.8139180  32.8972120  25.7029270
  53.6853810  32.8890020  26.6514190  52.9901200  33.2355210  25.3520280
  51.1163840  50.3788640  21.6760100  51.4761480  50.9777980  21.0217370
  50.9756180  50.9248530  22.4495130  50.8133110  34.6563240  35.1635970
  50.0991630  34.8560160  35.7688580  51.2328150  33.8802810  35.5350770
  51.1005700  48.6443500  36.1502500  51.2096820  47.7038240  36.0097890
  50.4486260  48.9098250  35.5016230  59.0918290  46.9159390  37.5500620
  58.7715160  46.1968630  38.0946310  58.4176650  47.5914460  37.6236680
  57.1332460  47.7619840  22.4933770  57.1242560  48.4949530  21.8778280
  56.2130820  47.5151420  22.5860730  52.7339100  42.9834730  23.2380530
  52.1267050  43.7233630  23.2475830  53.2088450  43.0734090  22.4118730
  60.1192060  47.8248080  21.1558960  60.2204040  47.6212070  20.2260940
  59.2193800  47.5706360  21.3606740  57.6417950  38.3828440  25.1382860
  56.9334100  38.8514780  25.5796470  57.9262430  37.7250450  25.7728050
  59.2673880  39.8025140  33.1375390  59.7659130  40.2770960  33.8027240
  59.4096830  38.8788660  33.3445420  58.7610170  50.3434400  25.8506630
  59.0151670  50.3055790  24.9286000  57.8122650  50.2167730  25.8434880
  55.8452970  36.6913520  22.5133570  56.6943500  37.1283670  22.4473760
  55.4784240  37.0033780  23.3405630  54.7444390  42.9445880  20.9869100
  55.5107660  42.8327240  21.5494530  54.8219080  42.2483850  20.3345870
  53.4391150  40.3770950  21.6701990  53.5194740  39.4298460  21.7819390
  54.3310900  40.7077830  21.7762650  54.2405860  50.5266340  28.7736530
  54.9768340  49.9781800  29.0445100  54.6246780  51.3922350  28.6342520
  51.1251340  46.5939910  24.6478040  50.1991120  46.8361050  24.6383450
  51.5907770  47.4214170  24.5262790  53.2464140  49.7112410  37.9622110
  54.0476870  50.0324460  38.3757510  52.7315960  49.3507990  38.6842020
  57.3508170  49.6996650  20.5962100  58.1436780  49.9885480  20.1443890
  56.8312520  49.2688820  19.9174580  50.9661950  42.1985870  36.9058160
  51.4700970  41.6193150  37.4774390  50.2269370  42.4826100  37.4434530
  57.8685570  44.9200060  20.4604450  57.7636210  44.3052410  21.1865830
  57.7009790  44.3965950  19.6767460  58.0199890  43.6056860  36.4393680
  57.2545560  44.1741860  36.3548350  58.2015850  43.3133070  35.5461910
  52.9985030  40.3415460  37.8008230  53.0390370  40.0429330  38.7093460
  53.8530530  40.7423070  37.6415750  56.7763420  42.9411010  22.9611740
  57.1979840  42.7750880  23.8043130  56.9014260  42.1311240  22.4666880
  54.9390840  38.9207560  35.7682720  54.4087300  38.4298510  35.1406060
  55.6078910  39.3491760  35.2340650  59.2891060  41.9648620  20.2088840
  59.8096720  41.2497640  19.8429990  59.9359460  42.6034490  20.5089350
  55.4263140  35.8869930  35.8480010  55.3320010  35.2690680  35.1230880
  54.8460530  36.6136220  35.6209920  58.1924580  34.4443170  32.8807400
  57.7441880  34.4667430  32.0352950  57.5589780  34.0462190  33.4777700
  58.5984130  43.3397500  33.5019840  59.0172240  44.1830230  33.3296080
  57.6792760  43.4769540  33.2726620  55.6722320  39.0144240  19.9069900
  55.4711380  38.1511600  20.2683240  55.5014370  38.9277600  18.9691500
  56.4491550  49.6450510  34.6177570  55.9112640  50.3696570  34.2986270
  56.7025510  49.1680850  33.8274910  57.7016800  37.6135030  36.1433500
  58.2916490  37.3050880  36.8311320  56.8837040  37.1414780  36.2993400
  54.4705120  36.1144860  19.8947780  54.7731020  36.1212290  18.9866930
  55.2099710  35.7642720  20.3915440  59.3053760  50.8801720  34.8764220
  59.2312460  51.7836860  35.1836590  58.4032600  50.5613620  34.8486290
  57.6890050  35.0579480  20.8803980  57.3412050  34.3803470  20.3006430
  57.8902820  34.5968990  21.6947370  53.4935250  45.4187280  20.7277580
  53.9310120  45.9616950  21.3835160  53.9782980  44.5934230  20.7373920
  50.7081050  48.2076310  28.1797840  51.0384060  47.3397370  27.9476480
  51.1372050  48.4134830  29.0102800  55.3042970  46.5385320  25.8399810
  55.0038510  46.4150290  26.7403720  55.1980460  45.6793910  25.4315540
  51.1971260  49.0746900  30.9179470  50.7602250  49.2547700  31.7503620
  51.7648940  49.8321520  30.7761190  51.0295690  41.5867130  27.2768350
  50.3744530  41.3178770  26.6328050  51.8673640  41.4771610  26.8270330
  52.0671620  41.9719700  31.8171690  52.4344660  41.8847100  32.6967710
  51.4982440  41.2086250  31.7178550  51.6187620  38.8828790  35.7230110
  50.7243670  38.8495550  36.0623820  52.1585170  39.0815580  36.4881360
  50.2433770  38.7966060  23.2193680  49.3397850  39.0596260  23.0445340
  50.7274390  39.0677230  22.4393640  52.7860980  37.8531600  21.1288060
  53.4952680  37.4314820  20.6435340  52.0700920  37.9206830  20.4971410
  52.4335140  33.9070930  20.1690710  53.1563270  34.4479870  20.4871930
  52.7059660  33.6334350  19.2932250  52.1227330  33.1577120  30.0713330
  52.7703520  32.6074500  29.6308490  52.5429170  33.4120270  30.8929140
  51.8759330  33.3132790  32.8138650  51.5274150  33.7696610  33.5796830
  51.5447030  32.4189920  32.8961080  53.4823700  46.4852390  36.9791840
  53.4393330  46.1145300  37.8606300  53.6134710  47.4229960  37.1193660
  57.1829730  48.0411980  32.5801560  56.9421090  48.3086540  31.6932080
  58.1232370  48.2117710  32.6352420  59.3884150  34.5044670  36.3358070
  59.3273040  35.0966500  37.0853480  60.3284530  34.3970630  36.1908330
  52.5479970  32.8408990  36.0889420  53.0962960  32.6597040  35.3255530
  52.6135280  32.0503100  36.6245730  53.3211730  49.4314640  34.0989620
  52.7272050  49.2999340  34.8379660  53.3135570  48.5952780  33.6331720
  52.9523960  46.7973020  33.0497660  52.2258020  46.1778310  32.9823610
  53.0133110  47.1913630  32.1795740  56.5569060  49.0118020  29.8347070
  57.0734080  48.4005380  29.3095330  57.2066440  49.5146800  30.3258080
  59.2964560  49.9026510  30.6616050  59.5842370  49.6480810  29.7849060
  59.8087780  49.3503870  31.2521620  60.5141570  33.6416710  31.2412560
  59.7313360  34.1162210  31.5209320  60.2204500  32.7371540  31.1325740
  51.2353960  50.1147410  26.2594420  51.0676000  49.4818090  26.9576310
  50.3688470  50.3206810  25.9088610  51.8581980  33.9464190  23.7626280
  52.6161340  34.0593070  23.1890310  51.3959150  34.7833390  23.7169710
  58.3995790  36.0603460  26.7528590  57.5870300  35.6860350  26.4124470
  58.9037430  35.3048540  27.0549780  52.8416660  48.8080640  23.7044560
  52.3164280  49.1888670  23.0006520  52.7661240  49.4331410  24.4254270
  54.2307130  34.4728240  22.3028250  54.7599890  33.6858040  22.1736200
  54.8635450  35.1519430  22.5363780  56.4244970  34.2103380  25.3573640
  55.7947710  33.5090690  25.5243770  55.8850110  34.9707510  25.1406800
  59.3636920  50.8242610  38.0284250  60.2904230  50.5886880  38.0720210
  59.3487350  51.6514610  37.5470280  56.5500530  33.4887360  37.7926130
  56.2684800  33.9920960  37.0286950  56.9320230  32.6909110  37.4268260
  55.4409630  50.7563020  22.5793810  56.1728450  50.4722300  22.0317700
  55.7003300  50.5176300  23.4693190  54.6024420  46.8727750  22.5840140
  53.9733300  47.3412850  23.1325970  54.7172250  46.0276970  23.0186330
  54.2058010  43.0132240  11.4926370  53.3742890  42.7580950  11.8922880
  54.8138990  43.0843010  12.2284290  54.1859270  47.0472330  11.6884390
  54.4887310  46.1570070  11.5094610  54.9302860  47.6042550  11.4606640
  52.6149960  37.9734130   5.2768760  51.7266660  38.3150100   5.1748640
  52.8991150  37.7734450   4.3849590  50.5782970  40.5739780  11.1608460
  51.1499080  39.8061980  11.1612100  50.5784510  40.8728540  10.2515070
  59.6301170  45.3769620  10.6220770  59.5609450  44.4359560  10.4609900
  60.3921030  45.4671030  11.1943340  51.8207840  35.9824140  12.9477390
  51.6410680  35.0849890  13.2280150  51.4187920  36.5296010  13.6224340
  54.7911350  36.5565630   6.3107140  54.8978100  37.4569360   6.6175900
  53.8803710  36.5083600   6.0201790  52.4394510  38.4784640  11.5559730
  53.1204620  38.7423010  12.1747130  52.1242560  37.6385510  11.8897740
  56.6319080  39.5252000  10.6432320  57.1397300  40.0232970  11.2837340
  57.1632320  38.7487200  10.4671680  54.9155180  34.1650560  14.9095740
  54.9173620  34.6822950  14.1041640  54.0859490  33.6880740  14.8865670
  56.1658030  43.8045740  13.0869240  55.8327410  44.4314660  13.7290310
  56.3424710  44.3307620  12.3070910  54.5970510  35.8760520  12.9166190
  54.9387320  36.7202570  12.6220060  53.6586320  36.0244260  13.0331530
  55.3777130  45.7726540  14.9018420  55.9951130  46.4477620  14.6202870
  54.5170250  46.1814520  14.8105920  50.6709470  44.9626400   3.7825270
  50.2937450  45.4513500   3.0510170  50.9282540  45.6351680   4.4131800
  58.2798400  33.3642790   9.2410780  58.5873380  32.8089680   8.5246280
  57.3499100  33.4987250   9.0583770  56.2735800  41.9556360   8.7590630
  55.8692800  41.2433610   8.2636530  56.3598920  41.6109600   9.6478670
  56.7417500  45.6423920  10.9229840  56.4445790  45.0369390  10.2437620
  57.6917320  45.6801230  10.8119200  54.9864420  38.7299570  12.5389670
  55.5379010  38.8394910  11.7642920  55.5007930  39.1037170  13.2544900
  55.8335930  45.3805610  17.5737640  54.9364460  45.6045580  17.8211040
  55.8588800  45.5040550  16.6249040  54.6607150  42.2518930  16.1495010
  54.5214920  43.1241730  16.5182410  53.7788510  41.9091740  16.0042950
  56.4587500  48.1940630  18.3580160  56.4302930  48.5983580  17.4908590
  56.2952470  47.2650990  18.1951760  52.9740430  40.8501340   6.2597280
  52.8538030  41.5763430   5.6478550  52.6641320  40.0804250   5.7825190
  50.6125800  44.0216480  12.0665920  50.6906220  44.1565250  11.1221640
  51.2267480  43.3132370  12.2594040  51.8573430  45.7216670   8.4772100
  51.4501510  45.8631260   7.6225700  52.7486440  45.4376830   8.2743310
  56.1295090  49.9362450   6.5894770  55.9537570  49.0197990   6.3762570
  55.2750830  50.2949740   6.8292570  50.6685320  45.0630650  14.6060380
  50.8316360  44.5936010  13.7879750  51.1337770  44.5554210  15.2709220
  55.4404090  34.1936410   9.6420950  54.9972240  34.9745950   9.3105470
  55.9989080  34.5166300  10.3491890  59.7273900  37.0604930  15.2456270
  59.2653270  37.2687950  16.0576210  59.3252010  36.2464280  14.9426940
  58.5562910  33.8147110   4.5226780  57.9317090  33.8106980   5.2480090
  58.4693030  32.9478070   4.1262750  57.4779990  34.7383740  11.5010550
  57.7752320  35.6446570  11.4202570  58.0265550  34.2502520  10.8870120
  55.2318310  39.3169980   7.3702200  55.0059230  39.1007150   8.2748820
  54.4510840  39.7498440   7.0248170  57.6717520  40.2155560  18.0362470
  57.5761120  39.2750290  17.8862870  58.5149500  40.4370630  17.6410540
  52.8028060  36.6269230  16.1896250  52.4091450  37.4744440  16.3969030
  52.1146460  35.9895600  16.3804890  59.3773110  36.7104200  19.2592990
  58.6871430  36.5176400  19.8939080  60.1205410  36.9938840  19.7917290
  50.1045110  34.5497690  10.2226330  49.8158160  35.1200550  10.9351310
  50.8490870  34.0702140  10.5857560  58.0913470  37.2256840  10.4999400
  58.0949530  36.7846790   9.6503940  58.9864590  37.5474170  10.6071220
  53.9415850  37.1083330   9.4593610  53.6015900  37.5858560  10.2160660
  53.1793170  36.6548450   9.0994710  58.1533620  38.2268920   3.4906160
  58.2746440  38.1855400   4.4391980  57.7682130  39.0893070   3.3352890
  57.1655120  40.5370060   2.8889460  56.5972020  40.0888310   2.2625370
  57.8744120  40.8962840   2.3554610  52.2424300  44.4382080  16.7656190
  51.8579090  43.7975750  17.3639150  52.5536490  45.1418200  17.3350920
  58.3921440  41.2858620  12.2464810  58.7591570  40.8117190  12.9926150
  58.2026500  42.1600190  12.5873150  51.2561930  36.0302310   8.3758280
  50.9708850  35.6657980   9.2136900  51.1940790  35.2982770   7.7621420
  56.1820810  40.3267260  14.5649020  55.8777880  41.2059240  14.7899380
  57.1367270  40.3867050  14.6006460  54.7102600  44.5328250   5.1615870
  53.9364860  43.9925870   5.0014590  55.4397230  44.0134860   4.8233630
  54.7540000  44.2008630   8.7994680  55.2718670  43.3976890   8.7451570
  54.3024020  44.1387770   9.6411510  59.6409500  45.4674910   4.0721980
  59.9825200  46.2117140   3.5765300  58.8122210  45.7806030   4.4346810
  52.2384540  41.1670000  15.7120380  51.8799480  41.8323850  16.2993720
  51.9439100  40.3353550  16.0833000  55.4397660  41.6254240  18.5959930
  55.1397800  41.7711420  17.6987750  56.2108900  41.0659530  18.5033320
  58.6100190  45.5488440   6.8437900  59.2971320  46.0957650   7.2245490
  57.8232610  46.0929170   6.8787510  50.7492590  41.1661260   2.3354980
  51.6187440  41.4486060   2.6190900  50.2582910  41.9797130   2.2203790
  57.9127400  42.5534470   6.4563260  58.3690180  43.3639720   6.6823450
  57.5615610  42.2357610   7.2881750  53.8139180  32.8972120   6.9285780
  53.6853810  32.8890020   7.8770700  52.9901200  33.2355210   6.5776790
  51.1163840  50.3788640   2.9016610  51.4761480  50.9777980   2.2473880
  50.9756180  50.9248530   3.6751640  50.8133110  34.6563240  16.3892480
  50.0991630  34.8560160  16.9945090  51.2328150  33.8802810  16.7607280
  51.1005700  48.6443500  17.3759010  51.2096820  47.7038240  17.2354400
  50.4486260  48.9098250  16.7272740  59.0918290  46.9159390  18.7757130
  58.7715160  46.1968630  19.3202820  58.4176650  47.5914460  18.8493190
  57.1332460  47.7619840   3.7190280  57.1242560  48.4949530   3.1034790
  56.2130820  47.5151420   3.8117240  52.7339100  42.9834730   4.4637040
  52.1267050  43.7233630   4.4732340  53.2088450  43.0734090   3.6375240
  60.1192060  47.8248080   2.3815470  60.2204040  47.6212070   1.4517450
  59.2193800  47.5706360   2.5863250  57.6417950  38.3828440   6.3639370
  56.9334100  38.8514780   6.8052980  57.9262430  37.7250450   6.9984560
  59.2673880  39.8025140  14.3631900  59.7659130  40.2770960  15.0283750
  59.4096830  38.8788660  14.5701930  58.7610170  50.3434400   7.0763140
  59.0151670  50.3055790   6.1542510  57.8122650  50.2167730   7.0691390
  55.8452970  36.6913520   3.7390080  56.6943500  37.1283670   3.6730270
  55.4784240  37.0033780   4.5662140  54.7444390  42.9445880   2.2125610
  55.5107660  42.8327240   2.7751040  54.8219080  42.2483850   1.5602380
  53.4391150  40.3770950   2.8958500  53.5194740  39.4298460   3.0075900
  54.3310900  40.7077830   3.0019160  54.2405860  50.5266340   9.9993040
  54.9768340  49.9781800  10.2701610  54.6246780  51.3922350   9.8599030
  51.1251340  46.5939910   5.8734550  50.1991120  46.8361050   5.8639960
  51.5907770  47.4214170   5.7519300  53.2464140  49.7112410  19.1878620
  54.0476870  50.0324460  19.6014020  52.7315960  49.3507990  19.9098530
  50.9661950  42.1985870  18.1314670  51.4700970  41.6193150  18.7030900
  50.2269370  42.4826100  18.6691040  58.0199890  43.6056860  17.6650190
  57.2545560  44.1741860  17.5804860  58.2015850  43.3133070  16.7718420
  52.9985030  40.3415460  19.0264740  53.0390370  40.0429330  19.9349970
  53.8530530  40.7423070  18.8672260  56.7763420  42.9411010   4.1868250
  57.1979840  42.7750880   5.0299640  56.9014260  42.1311240   3.6923390
  54.9390840  38.9207560  16.9939230  54.4087300  38.4298510  16.3662570
  55.6078910  39.3491760  16.4597160  55.4263140  35.8869930  17.0736520
  55.3320010  35.2690680  16.3487390  54.8460530  36.6136220  16.8466430
  58.1924580  34.4443170  14.1063910  57.7441880  34.4667430  13.2609460
  57.5589780  34.0462190  14.7034210  58.5984130  43.3397500  14.7276350
  59.0172240  44.1830230  14.5552590  57.6792760  43.4769540  14.4983130
  56.4491550  49.6450510  15.8434080  55.9112640  50.3696570  15.5242780
  56.7025510  49.1680850  15.0531420  57.7016800  37.6135030  17.3690010
  58.2916490  37.3050880  18.0567830  56.8837040  37.1414780  17.5249910
  59.3053760  50.8801720  16.1020730  59.2312460  51.7836860  16.4093100
  58.4032600  50.5613620  16.0742800  57.6890050  35.0579480   2.1060490
  57.3412050  34.3803470   1.5262940  57.8902820  34.5968990   2.9203880
  53.4935250  45.4187280   1.9534090  53.9310120  45.9616950   2.6091670
  53.9782980  44.5934230   1.9630430  50.7081050  48.2076310   9.4054350
  51.0384060  47.3397370   9.1732990  51.1372050  48.4134830  10.2359310
  55.3042970  46.5385320   7.0656320  55.0038510  46.4150290   7.9660230
  55.1980460  45.6793910   6.6572050  51.1971260  49.0746900  12.1435980
  50.7602250  49.2547700  12.9760130  51.7648940  49.8321520  12.0017700
  51.0295690  41.5867130   8.5024860  50.3744530  41.3178770   7.8584560
  51.8673640  41.4771610   8.0526840  52.0671620  41.9719700  13.0428200
  52.4344660  41.8847100  13.9224220  51.4982440  41.2086250  12.9435060
  51.6187620  38.8828790  16.9486620  50.7243670  38.8495550  17.2880330
  52.1585170  39.0815580  17.7137870  50.2433770  38.7966060   4.4450190
  49.3397850  39.0596260   4.2701850  50.7274390  39.0677230   3.6650150
  52.7860980  37.8531600   2.3544570  53.4952680  37.4314820   1.8691850
  52.0700920  37.9206830   1.7227920  52.1227330  33.1577120  11.2969840
  52.7703520  32.6074500  10.8565000  52.5429170  33.4120270  12.1185650
  51.8759330  33.3132790  14.0395160  51.5274150  33.7696610  14.8053340
  51.5447030  32.4189920  14.1217590  53.4823700  46.4852390  18.2048350
  53.4393330  46.1145300  19.0862810  53.6134710  47.4229960  18.3450170
  57.1829730  48.0411980  13.8058070  56.9421090  48.3086540  12.9188590
  58.1232370  48.2117710  13.8608930  59.3884150  34.5044670  17.5614580
  59.3273040  35.0966500  18.3109990  60.3284530  34.3970630  17.4164840
  52.5479970  32.8408990  17.3145930  53.0962960  32.6597040  16.5512040
  52.6135280  32.0503100  17.8502240  53.3211730  49.4314640  15.3246130
  52.7272050  49.2999340  16.0636170  53.3135570  48.5952780  14.8588230
  52.9523960  46.7973020  14.2754170  52.2258020  46.1778310  14.2080120
  53.0133110  47.1913630  13.4052250  56.5569060  49.0118020  11.0603580
  57.0734080  48.4005380  10.5351840  57.2066440  49.5146800  11.5514590
  59.2964560  49.9026510  11.8872560  59.5842370  49.6480810  11.0105570
  59.8087780  49.3503870  12.4778130  60.5141570  33.6416710  12.4669070
  59.7313360  34.1162210  12.7465830  60.2204500  32.7371540  12.3582250
  51.2353960  50.1147410   7.4850930  51.0676000  49.4818090   8.1832820
  50.3688470  50.3206810   7.1345120  51.8581980  33.9464190   4.9882790
  52.6161340  34.0593070   4.4146820  51.3959150  34.7833390   4.9426220
  58.3995790  36.0603460   7.9785100  57.5870300  35.6860350   7.6380980
  58.9037430  35.3048540   8.2806290  52.8416660  48.8080640   4.9301070
  52.3164280  49.1888670   4.2263030  52.7661240  49.4331410   5.6510780
  54.2307130  34.4728240   3.5284760  54.7599890  33.6858040   3.3992710
  54.8635450  35.1519430   3.7620290  56.4244970  34.2103380   6.5830150
  55.7947710  33.5090690   6.7500280  55.8850110  34.9707510   6.3663310
  59.3636920  50.8242610  19.2540760  60.2904230  50.5886880  19.2976720
  59.3487350  51.6514610  18.7726790  56.5500530  33.4887360  19.0182640
  56.2684800  33.9920960  18.2543460  56.9320230  32.6909110  18.6524770
  55.4409630  50.7563020   3.8050320  56.1728450  50.4722300   3.2574210
  55.7003300  50.5176300   4.6949700  54.6024420  46.8727750   3.8096650
  53.9733300  47.3412850   4.3582480  54.7172250  46.0276970   4.2442840
  54.2058010  24.2388750  49.0413350  53.3742890  23.9837460  49.4409860
  54.8138990  24.3099520  49.7771270  54.1859270  28.2728840  49.2371370
  54.4887310  27.3826580  49.0581590  54.9302860  28.8299060  49.0093620
  52.6149960  19.1990640  42.8255740  51.7266660  19.5406610  42.7235620
  52.8991150  18.9990960  41.9336570  50.5782970  21.7996290  48.7095440
  51.1499080  21.0318490  48.7099080  50.5784510  22.0985050  47.8002050
  59.6301170  26.6026130  48.1707750  59.5609450  25.6616070  48.0096880
  60.3921030  26.6927540  48.7430320  51.8207840  17.2080650  50.4964370
  51.6410680  16.3106400  50.7767130  51.4187920  17.7552520  51.1711320
  54.7911350  17.7822140  43.8594120  54.8978100  18.6825870  44.1662880
  53.8803710  17.7340110  43.5688770  52.4394510  19.7041150  49.1046710
  53.1204620  19.9679520  49.7234110  52.1242560  18.8642020  49.4384720
  56.6319080  20.7508510  48.1919300  57.1397300  21.2489480  48.8324320
  57.1632320  19.9743710  48.0158660  54.9155180  15.3907070  52.4582720
  54.9173620  15.9079460  51.6528620  54.0859490  14.9137250  52.4352650
  56.1658030  25.0302250  50.6356220  55.8327410  25.6571170  51.2777290
  56.3424710  25.5564130  49.8557890  54.5970510  17.1017030  50.4653170
  54.9387320  17.9459080  50.1707040  53.6586320  17.2500770  50.5818510
  55.3777130  26.9983050  52.4505400  55.9951130  27.6734130  52.1689850
  54.5170250  27.4071030  52.3592900  50.6709470  26.1882910  41.3312250
  50.2937450  26.6770010  40.5997150  50.9282540  26.8608190  41.9618780
  58.2798400  14.5899300  46.7897760  58.5873380  14.0346190  46.0733260
  57.3499100  14.7243760  46.6070750  56.2735800  23.1812870  46.3077610
  55.8692800  22.4690120  45.8123510  56.3598920  22.8366110  47.1965650
  56.7417500  26.8680430  48.4716820  56.4445790  26.2625900  47.7924600
  57.6917320  26.9057740  48.3606180  54.9864420  19.9556080  50.0876650
  55.5379010  20.0651420  49.3129900  55.5007930  20.3293680  50.8031880
  55.8335930  26.6062120  55.1224620  54.9364460  26.8302090  55.3698020
  55.8588800  26.7297060  54.1736020  54.6607150  23.4775440  53.6981990
  54.5214920  24.3498240  54.0669390  53.7788510  23.1348250  53.5529930
  56.4587500  29.4197140  55.9067140  56.4302930  29.8240090  55.0395570
  56.2952470  28.4907500  55.7438740  52.9740430  22.0757850  43.8084260
  52.8538030  22.8019940  43.1965530  52.6641320  21.3060760  43.3312170
  50.6125800  25.2472990  49.6152900  50.6906220  25.3821760  48.6708620
  51.2267480  24.5388880  49.8081020  51.8573430  26.9473180  46.0259080
  51.4501510  27.0887770  45.1712680  52.7486440  26.6633340  45.8230290
  56.1295090  31.1618960  44.1381750  55.9537570  30.2454500  43.9249550
  55.2750830  31.5206250  44.3779550  50.6685320  26.2887160  52.1547360
  50.8316360  25.8192520  51.3366730  51.1337770  25.7810720  52.8196200
  55.4404090  15.4192920  47.1907930  54.9972240  16.2002460  46.8592450
  55.9989080  15.7422810  47.8978870  59.7273900  18.2861440  52.7943250
  59.2653270  18.4944460  53.6063190  59.3252010  17.4720790  52.4913920
  58.5562910  15.0403620  42.0713760  57.9317090  15.0363490  42.7967070
  58.4693030  14.1734580  41.6749730  57.4779990  15.9640250  49.0497530
  57.7752320  16.8703080  48.9689550  58.0265550  15.4759030  48.4357100
  55.2318310  20.5426490  44.9189180  55.0059230  20.3263660  45.8235800
  54.4510840  20.9754950  44.5735150  57.6717520  21.4412070  55.5849450
  57.5761120  20.5006800  55.4349850  58.5149500  21.6627140  55.1897520
  52.8028060  17.8525740  53.7383230  52.4091450  18.7000950  53.9456010
  52.1146460  17.2152110  53.9291870  50.1045110  15.7754200  47.7713310
  49.8158160  16.3457060  48.4838290  50.8490870  15.2958650  48.1344540
  50.2915340  19.7174320  38.9816030  50.2090010  20.6605080  39.1231020
  49.9398400  19.5749230  38.1028380  58.0913470  18.4513350  48.0486380
  58.0949530  18.0103300  47.1990920  58.9864590  18.7730680  48.1558200
  53.9415850  18.3339840  47.0080590  53.6015900  18.8115070  47.7647640
  53.1793170  17.8804960  46.6481690  58.1533620  19.4525430  41.0393140
  58.2746440  19.4111910  41.9878960  57.7682130  20.3149580  40.8839870
  57.1655120  21.7626570  40.4376440  56.5972020  21.3144820  39.8112350
  57.8744120  22.1219350  39.9041590  52.2424300  25.6638590  54.3143170
  51.8579090  25.0232260  54.9126130  52.5536490  26.3674710  54.8837900
  58.3921440  22.5115130  49.7951790  58.7591570  22.0373700  50.5413130
  58.2026500  23.3856700  50.1360130  51.2561930  17.2558820  45.9245260
  50.9708850  16.8914490  46.7623880  51.1940790  16.5239280  45.3108400
  56.1820810  21.5523770  52.1136000  55.8777880  22.4315750  52.3386360
  57.1367270  21.6123560  52.1493440  54.7102600  25.7584760  42.7102850
  53.9364860  25.2182380  42.5501570  55.4397230  25.2391370  42.3720610
  54.7540000  25.4265140  46.3481660  55.2718670  24.6233400  46.2938550
  54.3024020  25.3644280  47.1898490  59.6409500  26.6931420  41.6208960
  59.9825200  27.4373650  41.1252280  58.8122210  27.0062540  41.9833790
  52.2384540  22.3926510  53.2607360  51.8799480  23.0580360  53.8480700
  51.9439100  21.5610060  53.6319980  55.4397660  22.8510750  56.1446910
  55.1397800  22.9967930  55.2474730  56.2108900  22.2916040  56.0520300
  58.6100190  26.7744950  44.3924880  59.2971320  27.3214160  44.7732470
  57.8232610  27.3185680  44.4274490  50.7492590  22.3917770  39.8841960
  51.6187440  22.6742570  40.1677880  50.2582910  23.2053640  39.7690770
  57.9127400  23.7790980  44.0050240  58.3690180  24.5896230  44.2310430
  57.5615610  23.4614120  44.8368730  53.8139180  14.1228630  44.4772760
  53.6853810  14.1146530  45.4257680  52.9901200  14.4611720  44.1263770
  51.1163840  31.6045150  40.4503590  51.4761480  32.2034490  39.7960860
  50.9756180  32.1505040  41.2238620  50.8133110  15.8819750  53.9379460
  50.0991630  16.0816670  54.5432070  51.2328150  15.1059320  54.3094260
  51.1005700  29.8700010  54.9245990  51.2096820  28.9294750  54.7841380
  50.4486260  30.1354760  54.2759720  57.1332460  28.9876350  41.2677260
  57.1242560  29.7206040  40.6521770  56.2130820  28.7407930  41.3604220
  52.7339100  24.2091240  42.0124020  52.1267050  24.9490140  42.0219320
  53.2088450  24.2990600  41.1862220  60.1192060  29.0504590  39.9302450
  60.2204040  28.8468580  39.0004430  59.2193800  28.7962870  40.1350230
  57.6417950  19.6084950  43.9126350  56.9334100  20.0771290  44.3539960
  57.9262430  18.9506960  44.5471540  59.2673880  21.0281650  51.9118880
  59.7659130  21.5027470  52.5770730  59.4096830  20.1045170  52.1188910
  58.7610170  31.5690910  44.6250120  59.0151670  31.5312300  43.7029490
  57.8122650  31.4424240  44.6178370  55.8452970  17.9170030  41.2877060
  56.6943500  18.3540180  41.2217250  55.4784240  18.2290290  42.1149120
  54.7444390  24.1702390  39.7612590  55.5107660  24.0583750  40.3238020
  54.8219080  23.4740360  39.1089360  53.4391150  21.6027460  40.4445480
  53.5194740  20.6554970  40.5562880  54.3310900  21.9334340  40.5506140
  54.2405860  31.7522850  47.5480020  54.9768340  31.2038310  47.8188590
  54.6246780  32.6178860  47.4086010  51.1251340  27.8196420  43.4221530
  50.1991120  28.0617560  43.4126940  51.5907770  28.6470680  43.3006280
  57.3508170  30.9253160  39.3705590  58.1436780  31.2141990  38.9187380
  56.8312520  30.4945330  38.6918070  50.9661950  23.4242380  55.6801650
  51.4700970  22.8449660  56.2517880  50.2269370  23.7082610  56.2178020
  57.8685570  26.1456570  39.2347940  57.7636210  25.5308920  39.9609320
  57.7009790  25.6222460  38.4510950  58.0199890  24.8313370  55.2137170
  57.2545560  25.3998370  55.1291840  58.2015850  24.5389580  54.3205400
  56.7763420  24.1667520  41.7355230  57.1979840  24.0007390  42.5786620
  56.9014260  23.3567750  41.2410370  54.9390840  20.1464070  54.5426210
  54.4087300  19.6555020  53.9149550  55.6078910  20.5748270  54.0084140
  59.2891060  23.1905130  38.9832330  59.8096720  22.4754150  38.6173480
  59.9359460  23.8291000  39.2832840  55.4263140  17.1126440  54.6223500
  55.3320010  16.4947190  53.8974370  54.8460530  17.8392730  54.3953410
  58.1924580  15.6699680  51.6550890  57.7441880  15.6923940  50.8096440
  57.5589780  15.2718700  52.2521190  58.5984130  24.5654010  52.2763330
  59.0172240  25.4086740  52.1039570  57.6792760  24.7026050  52.0470110
  55.6722320  20.2400750  38.6813390  55.4711380  19.3768110  39.0426730
  55.5014370  20.1534110  37.7434990  56.4491550  30.8707020  53.3921060
  55.9112640  31.5953080  53.0729760  56.7025510  30.3937360  52.6018400
  57.7016800  18.8391540  54.9176990  58.2916490  18.5307390  55.6054810
  56.8837040  18.3671290  55.0736890  54.4705120  17.3401370  38.6691270
  54.7731020  17.3468800  37.7610420  55.2099710  16.9899230  39.1658930
  59.3053760  32.1058230  53.6507710  59.2312460  33.0093370  53.9580080
  58.4032600  31.7870130  53.6229780  57.6890050  16.2835990  39.6547470
  57.3412050  15.6059980  39.0749920  57.8902820  15.8225500  40.4690860
  53.4935250  26.6443790  39.5021070  53.9310120  27.1873460  40.1578650
  53.9782980  25.8190740  39.5117410  50.7081050  29.4332820  46.9541330
  51.0384060  28.5653880  46.7219970  51.1372050  29.6391340  47.7846290
  55.3042970  27.7641830  44.6143300  55.0038510  27.6406800  45.5147210
  55.1980460  26.9050420  44.2059030  51.1971260  30.3003410  49.6922960
  50.7602250  30.4804210  50.5247110  51.7648940  31.0578030  49.5504680
  51.0295690  22.8123640  46.0511840  50.3744530  22.5435280  45.4071540
  51.8673640  22.7028120  45.6013820  52.0671620  23.1976210  50.5915180
  52.4344660  23.1103610  51.4711200  51.4982440  22.4342760  50.4922040
  51.6187620  20.1085300  54.4973600  50.7243670  20.0752060  54.8367310
  52.1585170  20.3072090  55.2624850  50.2433770  20.0222570  41.9937170
  49.3397850  20.2852770  41.8188830  50.7274390  20.2933740  41.2137130
  52.7860980  19.0788110  39.9031550  53.4952680  18.6571330  39.4178830
  52.0700920  19.1463340  39.2714900  52.4335140  15.1327440  38.9434200
  53.1563270  15.6736380  39.2615420  52.7059660  14.8590860  38.0675740
  52.1227330  14.3833630  48.8456820  52.7703520  13.8331010  48.4051980
  52.5429170  14.6376780  49.6672630  51.8759330  14.5389300  51.5882140
  51.5274150  14.9953120  52.3540320  51.5447030  13.6446430  51.6704570
  53.4823700  27.7108900  55.7535330  53.4393330  27.3401810  56.6349790
  53.6134710  28.6486470  55.8937150  57.1829730  29.2668490  51.3545050
  56.9421090  29.5343050  50.4675570  58.1232370  29.4374220  51.4095910
  59.3884150  15.7301180  55.1101560  59.3273040  16.3223010  55.8596970
  60.3284530  15.6227140  54.9651820  52.5479970  14.0665500  54.8632910
  53.0962960  13.8853550  54.0999020  52.6135280  13.2759610  55.3989220
  53.3211730  30.6571150  52.8733110  52.7272050  30.5255850  53.6123150
  53.3135570  29.8209290  52.4075210  52.9523960  28.0229530  51.8241150
  52.2258020  27.4034820  51.7567100  53.0133110  28.4170140  50.9539230
  56.5569060  30.2374530  48.6090560  57.0734080  29.6261890  48.0838820
  57.2066440  30.7403310  49.1001570  59.2964560  31.1283020  49.4359540
  59.5842370  30.8737320  48.5592550  59.8087780  30.5760380  50.0265110
  60.5141570  14.8673220  50.0156050  59.7313360  15.3418720  50.2952810
  60.2204500  13.9628050  49.9069230  51.2353960  31.3403920  45.0337910
  51.0676000  30.7074600  45.7319800  50.3688470  31.5463320  44.6832100
  51.8581980  15.1720700  42.5369770  52.6161340  15.2849580  41.9633800
  51.3959150  16.0089900  42.4913200  58.3995790  17.2859970  45.5272080
  57.5870300  16.9116860  45.1867960  58.9037430  16.5305050  45.8293270
  52.8416660  30.0337150  42.4788050  52.3164280  30.4145180  41.7750010
  52.7661240  30.6587920  43.1997760  54.2307130  15.6984750  41.0771740
  54.7599890  14.9114550  40.9479690  54.8635450  16.3775940  41.3107270
  56.4244970  15.4359890  44.1317130  55.7947710  14.7347200  44.2987260
  55.8850110  16.1964020  43.9150290  56.5500530  14.7143870  56.5669620
  56.2684800  15.2177470  55.8030440  56.9320230  13.9165620  56.2011750
  55.4409630  31.9819530  41.3537300  56.1728450  31.6978810  40.8061190
  55.7003300  31.7432810  42.2436680  54.6024420  28.0984260  41.3583630
  53.9733300  28.5669360  41.9069460  54.7172250  27.2533480  41.7929820
  54.2058010  24.2388750  30.2669860  53.3742890  23.9837460  30.6666370
  54.8138990  24.3099520  31.0027780  54.1859270  28.2728840  30.4627880
  54.4887310  27.3826580  30.2838100  54.9302860  28.8299060  30.2350130
  52.6149960  19.1990640  24.0512250  51.7266660  19.5406610  23.9492130
  52.8991150  18.9990960  23.1593080  50.5782970  21.7996290  29.9351950
  51.1499080  21.0318490  29.9355590  50.5784510  22.0985050  29.0258560
  59.6301170  26.6026130  29.3964260  59.5609450  25.6616070  29.2353390
  60.3921030  26.6927540  29.9686830  51.8207840  17.2080650  31.7220880
  51.6410680  16.3106400  32.0023640  51.4187920  17.7552520  32.3967830
  54.7911350  17.7822140  25.0850630  54.8978100  18.6825870  25.3919390
  53.8803710  17.7340110  24.7945280  52.4394510  19.7041150  30.3303220
  53.1204620  19.9679520  30.9490620  52.1242560  18.8642020  30.6641230
  56.6319080  20.7508510  29.4175810  57.1397300  21.2489480  30.0580830
  57.1632320  19.9743710  29.2415170  54.9155180  15.3907070  33.6839230
  54.9173620  15.9079460  32.8785130  54.0859490  14.9137250  33.6609160
  56.1658030  25.0302250  31.8612730  55.8327410  25.6571170  32.5033800
  56.3424710  25.5564130  31.0814400  54.5970510  17.1017030  31.6909680
  54.9387320  17.9459080  31.3963550  53.6586320  17.2500770  31.8075020
  55.3777130  26.9983050  33.6761910  55.9951130  27.6734130  33.3946360
  54.5170250  27.4071030  33.5849410  50.6709470  26.1882910  22.5568760
  50.2937450  26.6770010  21.8253660  50.9282540  26.8608190  23.1875290
  58.2798400  14.5899300  28.0154270  58.5873380  14.0346190  27.2989770
  57.3499100  14.7243760  27.8327260  56.2735800  23.1812870  27.5334120
  55.8692800  22.4690120  27.0380020  56.3598920  22.8366110  28.4222160
  56.7417500  26.8680430  29.6973330  56.4445790  26.2625900  29.0181110
  57.6917320  26.9057740  29.5862690  54.9864420  19.9556080  31.3133160
  55.5379010  20.0651420  30.5386410  55.5007930  20.3293680  32.0288390
  55.8335930  26.6062120  36.3481130  54.9364460  26.8302090  36.5954530
  55.8588800  26.7297060  35.3992530  54.6607150  23.4775440  34.9238500
  54.5214920  24.3498240  35.2925900  53.7788510  23.1348250  34.7786440
  56.4587500  29.4197140  37.1323650  56.4302930  29.8240090  36.2652080
  56.2952470  28.4907500  36.9695250  52.9740430  22.0757850  25.0340770
  52.8538030  22.8019940  24.4222040  52.6641320  21.3060760  24.5568680
  50.6125800  25.2472990  30.8409410  50.6906220  25.3821760  29.8965130
  51.2267480  24.5388880  31.0337530  51.8573430  26.9473180  27.2515590
  51.4501510  27.0887770  26.3969190  52.7486440  26.6633340  27.0486800
  56.1295090  31.1618960  25.3638260  55.9537570  30.2454500  25.1506060
  55.2750830  31.5206250  25.6036060  50.6685320  26.2887160  33.3803870
  50.8316360  25.8192520  32.5623240  51.1337770  25.7810720  34.0452710
  55.4404090  15.4192920  28.4164440  54.9972240  16.2002460  28.0848960
  55.9989080  15.7422810  29.1235380  59.7273900  18.2861440  34.0199760
  59.2653270  18.4944460  34.8319700  59.3252010  17.4720790  33.7170430
  58.5562910  15.0403620  23.2970270  57.9317090  15.0363490  24.0223580
  58.4693030  14.1734580  22.9006240  57.4779990  15.9640250  30.2754040
  57.7752320  16.8703080  30.1946060  58.0265550  15.4759030  29.6613610
  55.2318310  20.5426490  26.1445690  55.0059230  20.3263660  27.0492310
  54.4510840  20.9754950  25.7991660  57.6717520  21.4412070  36.8105960
  57.5761120  20.5006800  36.6606360  58.5149500  21.6627140  36.4154030
  52.8028060  17.8525740  34.9639740  52.4091450  18.7000950  35.1712520
  52.1146460  17.2152110  35.1548380  59.3773110  17.9360710  38.0336480
  58.6871430  17.7432910  38.6682570  60.1205410  18.2195350  38.5660780
  50.1045110  15.7754200  28.9969820  49.8158160  16.3457060  29.7094800
  50.8490870  15.2958650  29.3601050  50.2915340  19.7174320  20.2072540
  50.2090010  20.6605080  20.3487530  49.9398400  19.5749230  19.3284890
  58.0913470  18.4513350  29.2742890  58.0949530  18.0103300  28.4247430
  58.9864590  18.7730680  29.3814710  53.9415850  18.3339840  28.2337100
  53.6015900  18.8115070  28.9904150  53.1793170  17.8804960  27.8738200
  58.1533620  19.4525430  22.2649650  58.2746440  19.4111910  23.2135470
  57.7682130  20.3149580  22.1096380  57.1655120  21.7626570  21.6632950
  56.5972020  21.3144820  21.0368860  57.8744120  22.1219350  21.1298100
  52.2424300  25.6638590  35.5399680  51.8579090  25.0232260  36.1382640
  52.5536490  26.3674710  36.1094410  58.3921440  22.5115130  31.0208300
  58.7591570  22.0373700  31.7669640  58.2026500  23.3856700  31.3616640
  51.2561930  17.2558820  27.1501770  50.9708850  16.8914490  27.9880390
  51.1940790  16.5239280  26.5364910  56.1820810  21.5523770  33.3392510
  55.8777880  22.4315750  33.5642870  57.1367270  21.6123560  33.3749950
  54.7102600  25.7584760  23.9359360  53.9364860  25.2182380  23.7758080
  55.4397230  25.2391370  23.5977120  54.7540000  25.4265140  27.5738170
  55.2718670  24.6233400  27.5195060  54.3024020  25.3644280  28.4155000
  59.6409500  26.6931420  22.8465470  59.9825200  27.4373650  22.3508790
  58.8122210  27.0062540  23.2090300  52.2384540  22.3926510  34.4863870
  51.8799480  23.0580360  35.0737210  51.9439100  21.5610060  34.8576490
  55.4397660  22.8510750  37.3703420  55.1397800  22.9967930  36.4731240
  56.2108900  22.2916040  37.2776810  58.6100190  26.7744950  25.6181390
  59.2971320  27.3214160  25.9988980  57.8232610  27.3185680  25.6531000
  50.7492590  22.3917770  21.1098470  51.6187440  22.6742570  21.3934390
  50.2582910  23.2053640  20.9947280  57.9127400  23.7790980  25.2306750
  58.3690180  24.5896230  25.4566940  57.5615610  23.4614120  26.0625240
  53.8139180  14.1228630  25.7029270  53.6853810  14.1146530  26.6514190
  52.9901200  14.4611720  25.3520280  51.1163840  31.6045150  21.6760100
  51.4761480  32.2034490  21.0217370  50.9756180  32.1505040  22.4495130
  50.8133110  15.8819750  35.1635970  50.0991630  16.0816670  35.7688580
  51.2328150  15.1059320  35.5350770  51.1005700  29.8700010  36.1502500
  51.2096820  28.9294750  36.0097890  50.4486260  30.1354760  35.5016230
  59.0918290  28.1415900  37.5500620  58.7715160  27.4225140  38.0946310
  58.4176650  28.8170970  37.6236680  57.1332460  28.9876350  22.4933770
  57.1242560  29.7206040  21.8778280  56.2130820  28.7407930  22.5860730
  52.7339100  24.2091240  23.2380530  52.1267050  24.9490140  23.2475830
  53.2088450  24.2990600  22.4118730  60.1192060  29.0504590  21.1558960
  60.2204040  28.8468580  20.2260940  59.2193800  28.7962870  21.3606740
  57.6417950  19.6084950  25.1382860  56.9334100  20.0771290  25.5796470
  57.9262430  18.9506960  25.7728050  59.2673880  21.0281650  33.1375390
  59.7659130  21.5027470  33.8027240  59.4096830  20.1045170  33.3445420
  58.7610170  31.5690910  25.8506630  59.0151670  31.5312300  24.9286000
  57.8122650  31.4424240  25.8434880  55.8452970  17.9170030  22.5133570
  56.6943500  18.3540180  22.4473760  55.4784240  18.2290290  23.3405630
  54.7444390  24.1702390  20.9869100  55.5107660  24.0583750  21.5494530
  54.8219080  23.4740360  20.3345870  53.4391150  21.6027460  21.6701990
  53.5194740  20.6554970  21.7819390  54.3310900  21.9334340  21.7762650
  54.2405860  31.7522850  28.7736530  54.9768340  31.2038310  29.0445100
  54.6246780  32.6178860  28.6342520  51.1251340  27.8196420  24.6478040
  50.1991120  28.0617560  24.6383450  51.5907770  28.6470680  24.5262790
  53.2464140  30.9368920  37.9622110  54.0476870  31.2580970  38.3757510
  52.7315960  30.5764500  38.6842020  57.3508170  30.9253160  20.5962100
  58.1436780  31.2141990  20.1443890  56.8312520  30.4945330  19.9174580
  50.9661950  23.4242380  36.9058160  51.4700970  22.8449660  37.4774390
  50.2269370  23.7082610  37.4434530  57.8685570  26.1456570  20.4604450
  57.7636210  25.5308920  21.1865830  57.7009790  25.6222460  19.6767460
  58.0199890  24.8313370  36.4393680  57.2545560  25.3998370  36.3548350
  58.2015850  24.5389580  35.5461910  52.9985030  21.5671970  37.8008230
  53.0390370  21.2685840  38.7093460  53.8530530  21.9679580  37.6415750
  56.7763420  24.1667520  22.9611740  57.1979840  24.0007390  23.8043130
  56.9014260  23.3567750  22.4666880  54.9390840  20.1464070  35.7682720
  54.4087300  19.6555020  35.1406060  55.6078910  20.5748270  35.2340650
  59.2891060  23.1905130  20.2088840  59.8096720  22.4754150  19.8429990
  59.9359460  23.8291000  20.5089350  55.4263140  17.1126440  35.8480010
  55.3320010  16.4947190  35.1230880  54.8460530  17.8392730  35.6209920
  58.1924580  15.6699680  32.8807400  57.7441880  15.6923940  32.0352950
  57.5589780  15.2718700  33.4777700  58.5984130  24.5654010  33.5019840
  59.0172240  25.4086740  33.3296080  57.6792760  24.7026050  33.2726620
  55.6722320  20.2400750  19.9069900  55.4711380  19.3768110  20.2683240
  55.5014370  20.1534110  18.9691500  56.4491550  30.8707020  34.6177570
  55.9112640  31.5953080  34.2986270  56.7025510  30.3937360  33.8274910
  57.7016800  18.8391540  36.1433500  58.2916490  18.5307390  36.8311320
  56.8837040  18.3671290  36.2993400  54.4705120  17.3401370  19.8947780
  54.7731020  17.3468800  18.9866930  55.2099710  16.9899230  20.3915440
  59.3053760  32.1058230  34.8764220  59.2312460  33.0093370  35.1836590
  58.4032600  31.7870130  34.8486290  57.6890050  16.2835990  20.8803980
  57.3412050  15.6059980  20.3006430  57.8902820  15.8225500  21.6947370
  53.4935250  26.6443790  20.7277580  53.9310120  27.1873460  21.3835160
  53.9782980  25.8190740  20.7373920  50.7081050  29.4332820  28.1797840
  51.0384060  28.5653880  27.9476480  51.1372050  29.6391340  29.0102800
  55.3042970  27.7641830  25.8399810  55.0038510  27.6406800  26.7403720
  55.1980460  26.9050420  25.4315540  51.1971260  30.3003410  30.9179470
  50.7602250  30.4804210  31.7503620  51.7648940  31.0578030  30.7761190
  51.0295690  22.8123640  27.2768350  50.3744530  22.5435280  26.6328050
  51.8673640  22.7028120  26.8270330  52.0671620  23.1976210  31.8171690
  52.4344660  23.1103610  32.6967710  51.4982440  22.4342760  31.7178550
  51.6187620  20.1085300  35.7230110  50.7243670  20.0752060  36.0623820
  52.1585170  20.3072090  36.4881360  50.2433770  20.0222570  23.2193680
  49.3397850  20.2852770  23.0445340  50.7274390  20.2933740  22.4393640
  52.7860980  19.0788110  21.1288060  53.4952680  18.6571330  20.6435340
  52.0700920  19.1463340  20.4971410  52.4335140  15.1327440  20.1690710
  53.1563270  15.6736380  20.4871930  52.7059660  14.8590860  19.2932250
  52.1227330  14.3833630  30.0713330  52.7703520  13.8331010  29.6308490
  52.5429170  14.6376780  30.8929140  51.8759330  14.5389300  32.8138650
  51.5274150  14.9953120  33.5796830  51.5447030  13.6446430  32.8961080
  53.4823700  27.7108900  36.9791840  53.4393330  27.3401810  37.8606300
  53.6134710  28.6486470  37.1193660  57.1829730  29.2668490  32.5801560
  56.9421090  29.5343050  31.6932080  58.1232370  29.4374220  32.6352420
  59.3884150  15.7301180  36.3358070  59.3273040  16.3223010  37.0853480
  60.3284530  15.6227140  36.1908330  52.5479970  14.0665500  36.0889420
  53.0962960  13.8853550  35.3255530  52.6135280  13.2759610  36.6245730
  53.3211730  30.6571150  34.0989620  52.7272050  30.5255850  34.8379660
  53.3135570  29.8209290  33.6331720  52.9523960  28.0229530  33.0497660
  52.2258020  27.4034820  32.9823610  53.0133110  28.4170140  32.1795740
  56.5569060  30.2374530  29.8347070  57.0734080  29.6261890  29.3095330
  57.2066440  30.7403310  30.3258080  59.2964560  31.1283020  30.6616050
  59.5842370  30.8737320  29.7849060  59.8087780  30.5760380  31.2521620
  60.5141570  14.8673220  31.2412560  59.7313360  15.3418720  31.5209320
  60.2204500  13.9628050  31.1325740  51.2353960  31.3403920  26.2594420
  51.0676000  30.7074600  26.9576310  50.3688470  31.5463320  25.9088610
  51.8581980  15.1720700  23.7626280  52.6161340  15.2849580  23.1890310
  51.3959150  16.0089900  23.7169710  58.3995790  17.2859970  26.7528590
  57.5870300  16.9116860  26.4124470  58.9037430  16.5305050  27.0549780
  52.8416660  30.0337150  23.7044560  52.3164280  30.4145180  23.0006520
  52.7661240  30.6587920  24.4254270  54.2307130  15.6984750  22.3028250
  54.7599890  14.9114550  22.1736200  54.8635450  16.3775940  22.5363780
  56.4244970  15.4359890  25.3573640  55.7947710  14.7347200  25.5243770
  55.8850110  16.1964020  25.1406800  59.3636920  32.0499120  38.0284250
  60.2904230  31.8143390  38.0720210  59.3487350  32.8771120  37.5470280
  56.5500530  14.7143870  37.7926130  56.2684800  15.2177470  37.0286950
  56.9320230  13.9165620  37.4268260  55.4409630  31.9819530  22.5793810
  56.1728450  31.6978810  22.0317700  55.7003300  31.7432810  23.4693190
  54.6024420  28.0984260  22.5840140  53.9733300  28.5669360  23.1325970
  54.7172250  27.2533480  23.0186330  54.2058010  24.2388750  11.4926370
  53.3742890  23.9837460  11.8922880  54.8138990  24.3099520  12.2284290
  54.1859270  28.2728840  11.6884390  54.4887310  27.3826580  11.5094610
  54.9302860  28.8299060  11.4606640  52.6149960  19.1990640   5.2768760
  51.7266660  19.5406610   5.1748640  52.8991150  18.9990960   4.3849590
  50.5782970  21.7996290  11.1608460  51.1499080  21.0318490  11.1612100
  50.5784510  22.0985050  10.2515070  59.6301170  26.6026130  10.6220770
  59.5609450  25.6616070  10.4609900  60.3921030  26.6927540  11.1943340
  51.8207840  17.2080650  12.9477390  51.6410680  16.3106400  13.2280150
  51.4187920  17.7552520  13.6224340  54.7911350  17.7822140   6.3107140
  54.8978100  18.6825870   6.6175900  53.8803710  17.7340110   6.0201790
  52.4394510  19.7041150  11.5559730  53.1204620  19.9679520  12.1747130
  52.1242560  18.8642020  11.8897740  56.6319080  20.7508510  10.6432320
  57.1397300  21.2489480  11.2837340  57.1632320  19.9743710  10.4671680
  54.9155180  15.3907070  14.9095740  54.9173620  15.9079460  14.1041640
  54.0859490  14.9137250  14.8865670  56.1658030  25.0302250  13.0869240
  55.8327410  25.6571170  13.7290310  56.3424710  25.5564130  12.3070910
  54.5970510  17.1017030  12.9166190  54.9387320  17.9459080  12.6220060
  53.6586320  17.2500770  13.0331530  55.3777130  26.9983050  14.9018420
  55.9951130  27.6734130  14.6202870  54.5170250  27.4071030  14.8105920
  50.6709470  26.1882910   3.7825270  50.2937450  26.6770010   3.0510170
  50.9282540  26.8608190   4.4131800  58.2798400  14.5899300   9.2410780
  58.5873380  14.0346190   8.5246280  57.3499100  14.7243760   9.0583770
  56.2735800  23.1812870   8.7590630  55.8692800  22.4690120   8.2636530
  56.3598920  22.8366110   9.6478670  56.7417500  26.8680430  10.9229840
  56.4445790  26.2625900  10.2437620  57.6917320  26.9057740  10.8119200
  54.9864420  19.9556080  12.5389670  55.5379010  20.0651420  11.7642920
  55.5007930  20.3293680  13.2544900  55.8335930  26.6062120  17.5737640
  54.9364460  26.8302090  17.8211040  55.8588800  26.7297060  16.6249040
  54.6607150  23.4775440  16.1495010  54.5214920  24.3498240  16.5182410
  53.7788510  23.1348250  16.0042950  56.4587500  29.4197140  18.3580160
  56.4302930  29.8240090  17.4908590  56.2952470  28.4907500  18.1951760
  52.9740430  22.0757850   6.2597280  52.8538030  22.8019940   5.6478550
  52.6641320  21.3060760   5.7825190  50.6125800  25.2472990  12.0665920
  50.6906220  25.3821760  11.1221640  51.2267480  24.5388880  12.2594040
  51.8573430  26.9473180   8.4772100  51.4501510  27.0887770   7.6225700
  52.7486440  26.6633340   8.2743310  56.1295090  31.1618960   6.5894770
  55.9537570  30.2454500   6.3762570  55.2750830  31.5206250   6.8292570
  50.6685320  26.2887160  14.6060380  50.8316360  25.8192520  13.7879750
  51.1337770  25.7810720  15.2709220  55.4404090  15.4192920   9.6420950
  54.9972240  16.2002460   9.3105470  55.9989080  15.7422810  10.3491890
  59.7273900  18.2861440  15.2456270  59.2653270  18.4944460  16.0576210
  59.3252010  17.4720790  14.9426940  58.5562910  15.0403620   4.5226780
  57.9317090  15.0363490   5.2480090  58.4693030  14.1734580   4.1262750
  57.4779990  15.9640250  11.5010550  57.7752320  16.8703080  11.4202570
  58.0265550  15.4759030  10.8870120  55.2318310  20.5426490   7.3702200
  55.0059230  20.3263660   8.2748820  54.4510840  20.9754950   7.0248170
  57.6717520  21.4412070  18.0362470  57.5761120  20.5006800  17.8862870
  58.5149500  21.6627140  17.6410540  52.8028060  17.8525740  16.1896250
  52.4091450  18.7000950  16.3969030  52.1146460  17.2152110  16.3804890
  59.3773110  17.9360710  19.2592990  58.6871430  17.7432910  19.8939080
  60.1205410  18.2195350  19.7917290  50.1045110  15.7754200  10.2226330
  49.8158160  16.3457060  10.9351310  50.8490870  15.2958650  10.5857560
  58.0913470  18.4513350  10.4999400  58.0949530  18.0103300   9.6503940
  58.9864590  18.7730680  10.6071220  53.9415850  18.3339840   9.4593610
  53.6015900  18.8115070  10.2160660  53.1793170  17.8804960   9.0994710
  58.1533620  19.4525430   3.4906160  58.2746440  19.4111910   4.4391980
  57.7682130  20.3149580   3.3352890  57.1655120  21.7626570   2.8889460
  56.5972020  21.3144820   2.2625370  57.8744120  22.1219350   2.3554610
  52.2424300  25.6638590  16.7656190  51.8579090  25.0232260  17.3639150
  52.5536490  26.3674710  17.3350920  58.3921440  22.5115130  12.2464810
  58.7591570  22.0373700  12.9926150  58.2026500  23.3856700  12.5873150
  51.2561930  17.2558820   8.3758280  50.9708850  16.8914490   9.2136900
  51.1940790  16.5239280   7.7621420  56.1820810  21.5523770  14.5649020
  55.8777880  22.4315750  14.7899380  57.1367270  21.6123560  14.6006460
  54.7102600  25.7584760   5.1615870  53.9364860  25.2182380   5.0014590
  55.4397230  25.2391370   4.8233630  54.7540000  25.4265140   8.7994680
  55.2718670  24.6233400   8.7451570  54.3024020  25.3644280   9.6411510
  59.6409500  26.6931420   4.0721980  59.9825200  27.4373650   3.5765300
  58.8122210  27.0062540   4.4346810  52.2384540  22.3926510  15.7120380
  51.8799480  23.0580360  16.2993720  51.9439100  21.5610060  16.0833000
  55.4397660  22.8510750  18.5959930  55.1397800  22.9967930  17.6987750
  56.2108900  22.2916040  18.5033320  58.6100190  26.7744950   6.8437900
  59.2971320  27.3214160   7.2245490  57.8232610  27.3185680   6.8787510
  50.7492590  22.3917770   2.3354980  51.6187440  22.6742570   2.6190900
  50.2582910  23.2053640   2.2203790  57.9127400  23.7790980   6.4563260
  58.3690180  24.5896230   6.6823450  57.5615610  23.4614120   7.2881750
  53.8139180  14.1228630   6.9285780  53.6853810  14.1146530   7.8770700
  52.9901200  14.4611720   6.5776790  51.1163840  31.6045150   2.9016610
  51.4761480  32.2034490   2.2473880  50.9756180  32.1505040   3.6751640
  50.8133110  15.8819750  16.3892480  50.0991630  16.0816670  16.9945090
  51.2328150  15.1059320  16.7607280  51.1005700  29.8700010  17.3759010
  51.2096820  28.9294750  17.2354400  50.4486260  30.1354760  16.7272740
  59.0918290  28.1415900  18.7757130  58.7715160  27.4225140  19.3202820
  58.4176650  28.8170970  18.8493190  57.1332460  28.9876350   3.7190280
  57.1242560  29.7206040   3.1034790  56.2130820  28.7407930   3.8117240
  52.7339100  24.2091240   4.4637040  52.1267050  24.9490140   4.4732340
  53.2088450  24.2990600   3.6375240  60.1192060  29.0504590   2.3815470
  60.2204040  28.8468580   1.4517450  59.2193800  28.7962870   2.5863250
  57.6417950  19.6084950   6.3639370  56.9334100  20.0771290   6.8052980
  57.9262430  18.9506960   6.9984560  59.2673880  21.0281650  14.3631900
  59.7659130  21.5027470  15.0283750  59.4096830  20.1045170  14.5701930
  58.7610170  31.5690910   7.0763140  59.0151670  31.5312300   6.1542510
  57.8122650  31.4424240   7.0691390  55.8452970  17.9170030   3.7390080
  56.6943500  18.3540180   3.6730270  55.4784240  18.2290290   4.5662140
  54.7444390  24.1702390   2.2125610  55.5107660  24.0583750   2.7751040
  54.8219080  23.4740360   1.5602380  53.4391150  21.6027460   2.8958500
  53.5194740  20.6554970   3.0075900  54.3310900  21.9334340   3.0019160
  54.2405860  31.7522850   9.9993040  54.9768340  31.2038310  10.2701610
  54.6246780  32.6178860   9.8599030  51.1251340  27.8196420   5.8734550
  50.1991120  28.0617560   5.8639960  51.5907770  28.6470680   5.7519300
  53.2464140  30.9368920  19.1878620  54.0476870  31.2580970  19.6014020
  52.7315960  30.5764500  19.9098530  50.9661950  23.4242380  18.1314670
  51.4700970  22.8449660  18.7030900  50.2269370  23.7082610  18.6691040
  58.0199890  24.8313370  17.6650190  57.2545560  25.3998370  17.5804860
  58.2015850  24.5389580  16.7718420  52.9985030  21.5671970  19.0264740
  53.0390370  21.2685840  19.9349970  53.8530530  21.9679580  18.8672260
  56.7763420  24.1667520   4.1868250  57.1979840  24.0007390   5.0299640
  56.9014260  23.3567750   3.6923390  54.9390840  20.1464070  16.9939230
  54.4087300  19.6555020  16.3662570  55.6078910  20.5748270  16.4597160
  55.4263140  17.1126440  17.0736520  55.3320010  16.4947190  16.3487390
  54.8460530  17.8392730  16.8466430  58.1924580  15.6699680  14.1063910
  57.7441880  15.6923940  13.2609460  57.5589780  15.2718700  14.7034210
  58.5984130  24.5654010  14.7276350  59.0172240  25.4086740  14.5552590
  57.6792760  24.7026050  14.4983130  56.4491550  30.8707020  15.8434080
  55.9112640  31.5953080  15.5242780  56.7025510  30.3937360  15.0531420
  57.7016800  18.8391540  17.3690010  58.2916490  18.5307390  18.0567830
  56.8837040  18.3671290  17.5249910  59.3053760  32.1058230  16.1020730
  59.2312460  33.0093370  16.4093100  58.4032600  31.7870130  16.0742800
  57.6890050  16.2835990   2.1060490  57.3412050  15.6059980   1.5262940
  57.8902820  15.8225500   2.9203880  53.4935250  26.6443790   1.9534090
  53.9310120  27.1873460   2.6091670  53.9782980  25.8190740   1.9630430
  50.7081050  29.4332820   9.4054350  51.0384060  28.5653880   9.1732990
  51.1372050  29.6391340  10.2359310  55.3042970  27.7641830   7.0656320
  55.0038510  27.6406800   7.9660230  55.1980460  26.9050420   6.6572050
  51.1971260  30.3003410  12.1435980  50.7602250  30.4804210  12.9760130
  51.7648940  31.0578030  12.0017700  51.0295690  22.8123640   8.5024860
  50.3744530  22.5435280   7.8584560  51.8673640  22.7028120   8.0526840
  52.0671620  23.1976210  13.0428200  52.4344660  23.1103610  13.9224220
  51.4982440  22.4342760  12.9435060  51.6187620  20.1085300  16.9486620
  50.7243670  20.0752060  17.2880330  52.1585170  20.3072090  17.7137870
  50.2433770  20.0222570   4.4450190  49.3397850  20.2852770   4.2701850
  50.7274390  20.2933740   3.6650150  52.7860980  19.0788110   2.3544570
  53.4952680  18.6571330   1.8691850  52.0700920  19.1463340   1.7227920
  52.1227330  14.3833630  11.2969840  52.7703520  13.8331010  10.8565000
  52.5429170  14.6376780  12.1185650  51.8759330  14.5389300  14.0395160
  51.5274150  14.9953120  14.8053340  51.5447030  13.6446430  14.1217590
  53.4823700  27.7108900  18.2048350  53.4393330  27.3401810  19.0862810
  53.6134710  28.6486470  18.3450170  57.1829730  29.2668490  13.8058070
  56.9421090  29.5343050  12.9188590  58.1232370  29.4374220  13.8608930
  59.3884150  15.7301180  17.5614580  59.3273040  16.3223010  18.3109990
  60.3284530  15.6227140  17.4164840  52.5479970  14.0665500  17.3145930
  53.0962960  13.8853550  16.5512040  52.6135280  13.2759610  17.8502240
  53.3211730  30.6571150  15.3246130  52.7272050  30.5255850  16.0636170
  53.3135570  29.8209290  14.8588230  52.9523960  28.0229530  14.2754170
  52.2258020  27.4034820  14.2080120  53.0133110  28.4170140  13.4052250
  56.5569060  30.2374530  11.0603580  57.0734080  29.6261890  10.5351840
  57.2066440  30.7403310  11.5514590  59.2964560  31.1283020  11.8872560
  59.5842370  30.8737320  11.0105570  59.8087780  30.5760380  12.4778130
  60.5141570  14.8673220  12.4669070  59.7313360  15.3418720  12.7465830
  60.2204500  13.9628050  12.3582250  51.2353960  31.3403920   7.4850930
  51.0676000  30.7074600   8.1832820  50.3688470  31.5463320   7.1345120
  51.8581980  15.1720700   4.9882790  52.6161340  15.2849580   4.4146820
  51.3959150  16.0089900   4.9426220  58.3995790  17.2859970   7.9785100
  57.5870300  16.9116860   7.6380980  58.9037430  16.5305050   8.2806290
  52.8416660  30.0337150   4.9301070  52.3164280  30.4145180   4.2263030
  52.7661240  30.6587920   5.6510780  54.2307130  15.6984750   3.5284760
  54.7599890  14.9114550   3.3992710  54.8635450  16.3775940   3.7620290
  56.4244970  15.4359890   6.5830150  55.7947710  14.7347200   6.7500280
  55.8850110  16.1964020   6.3663310  59.3636920  32.0499120  19.2540760
  60.2904230  31.8143390  19.2976720  59.3487350  32.8771120  18.7726790
  56.5500530  14.7143870  19.0182640  56.2684800  15.2177470  18.2543460
  56.9320230  13.9165620  18.6524770  55.4409630  31.9819530   3.8050320
  56.1728450  31.6978810   3.2574210  55.7003300  31.7432810   4.6949700
  54.6024420  28.0984260   3.8096650  53.9733300  28.5669360   4.3582480
  54.7172250  27.2533480   4.2442840  54.2058010   5.4645260  49.0413350
  53.3742890   5.2093970  49.4409860  54.8138990   5.5356030  49.7771270
  54.1859270   9.4985350  49.2371370  54.4887310   8.6083090  49.0581590
  54.9302860  10.0555570  49.0093620  50.5782970   3.0252800  48.7095440
  51.1499080   2.2575000  48.7099080  50.5784510   3.3241560  47.8002050
  59.6301170   7.8282640  48.1707750  59.5609450   6.8872580  48.0096880
  60.3921030   7.9184050  48.7430320  56.1658030   6.2558760  50.6356220
  55.8327410   6.8827680  51.2777290  56.3424710   6.7820640  49.8557890
  55.3777130   8.2239560  52.4505400  55.9951130   8.8990640  52.1689850
  54.5170250   8.6327540  52.3592900  50.6709470   7.4139420  41.3312250
  50.2937450   7.9026520  40.5997150  50.9282540   8.0864700  41.9618780
  56.2735800   4.4069380  46.3077610  55.8692800   3.6946630  45.8123510
  56.3598920   4.0622620  47.1965650  56.7417500   8.0936940  48.4716820
  56.4445790   7.4882410  47.7924600  57.6917320   8.1314250  48.3606180
  55.8335930   7.8318630  55.1224620  54.9364460   8.0558600  55.3698020
  55.8588800   7.9553570  54.1736020  54.6607150   4.7031950  53.6981990
  54.5214920   5.5754750  54.0669390  53.7788510   4.3604760  53.5529930
  56.4587500  10.6453650  55.9067140  56.4302930  11.0496600  55.0395570
  56.2952470   9.7164010  55.7438740  52.9740430   3.3014360  43.8084260
  52.8538030   4.0276450  43.1965530  52.6641320   2.5317270  43.3312170
  50.6125800   6.4729500  49.6152900  50.6906220   6.6078270  48.6708620
  51.2267480   5.7645390  49.8081020  51.8573430   8.1729690  46.0259080
  51.4501510   8.3144280  45.1712680  52.7486440   7.8889850  45.8230290
  56.1295090  12.3875470  44.1381750  55.9537570  11.4711010  43.9249550
  55.2750830  12.7462760  44.3779550  50.6685320   7.5143670  52.1547360
  50.8316360   7.0449030  51.3366730  51.1337770   7.0067230  52.8196200
  55.2318310   1.7683000  44.9189180  55.0059230   1.5520170  45.8235800
  54.4510840   2.2011460  44.5735150  57.6717520   2.6668580  55.5849450
  57.5761120   1.7263310  55.4349850  58.5149500   2.8883650  55.1897520
  57.1655120   2.9883080  40.4376440  56.5972020   2.5401330  39.8112350
  57.8744120   3.3475860  39.9041590  52.2424300   6.8895100  54.3143170
  51.8579090   6.2488770  54.9126130  52.5536490   7.5931220  54.8837900
  58.3921440   3.7371640  49.7951790  58.7591570   3.2630210  50.5413130
  58.2026500   4.6113210  50.1360130  56.1820810   2.7780280  52.1136000
  55.8777880   3.6572260  52.3386360  57.1367270   2.8380070  52.1493440
  54.7102600   6.9841270  42.7102850  53.9364860   6.4438890  42.5501570
  55.4397230   6.4647880  42.3720610  54.7540000   6.6521650  46.3481660
  55.2718670   5.8489910  46.2938550  54.3024020   6.5900790  47.1898490
  59.6409500   7.9187930  41.6208960  59.9825200   8.6630160  41.1252280
  58.8122210   8.2319050  41.9833790  52.2384540   3.6183020  53.2607360
  51.8799480   4.2836870  53.8480700  51.9439100   2.7866570  53.6319980
  55.4397660   4.0767260  56.1446910  55.1397800   4.2224440  55.2474730
  56.2108900   3.5172550  56.0520300  58.6100190   8.0001460  44.3924880
  59.2971320   8.5470670  44.7732470  57.8232610   8.5442190  44.4274490
  50.7492590   3.6174280  39.8841960  51.6187440   3.8999080  40.1677880
  50.2582910   4.4310150  39.7690770  57.9127400   5.0047490  44.0050240
  58.3690180   5.8152740  44.2310430  57.5615610   4.6870630  44.8368730
  51.1163840  12.8301660  40.4503590  51.4761480  13.4291000  39.7960860
  50.9756180  13.3761550  41.2238620  51.1005700  11.0956520  54.9245990
  51.2096820  10.1551260  54.7841380  50.4486260  11.3611270  54.2759720
  57.1332460  10.2132860  41.2677260  57.1242560  10.9462550  40.6521770
  56.2130820   9.9664440  41.3604220  52.7339100   5.4347750  42.0124020
  52.1267050   6.1746650  42.0219320  53.2088450   5.5247110  41.1862220
  60.1192060  10.2761100  39.9302450  60.2204040  10.0725090  39.0004430
  59.2193800  10.0219380  40.1350230  58.7610170  12.7947420  44.6250120
  59.0151670  12.7568810  43.7029490  57.8122650  12.6680750  44.6178370
  54.7444390   5.3958900  39.7612590  55.5107660   5.2840260  40.3238020
  54.8219080   4.6996870  39.1089360  53.4391150   2.8283970  40.4445480
  53.5194740   1.8811480  40.5562880  54.3310900   3.1590850  40.5506140
  54.2405860  12.9779360  47.5480020  54.9768340  12.4294820  47.8188590
  54.6246780  13.8435370  47.4086010  51.1251340   9.0452930  43.4221530
  50.1991120   9.2874070  43.4126940  51.5907770   9.8727190  43.3006280
  57.3508170  12.1509670  39.3705590  58.1436780  12.4398500  38.9187380
  56.8312520  11.7201840  38.6918070  50.9661950   4.6498890  55.6801650
  51.4700970   4.0706170  56.2517880  50.2269370   4.9339120  56.2178020
  57.8685570   7.3713080  39.2347940  57.7636210   6.7565430  39.9609320
  57.7009790   6.8478970  38.4510950  58.0199890   6.0569880  55.2137170
  57.2545560   6.6254880  55.1291840  58.2015850   5.7646090  54.3205400
  56.7763420   5.3924030  41.7355230  57.1979840   5.2263900  42.5786620
  56.9014260   4.5824260  41.2410370  59.2891060   4.4161640  38.9832330
  59.8096720   3.7010660  38.6173480  59.9359460   5.0547510  39.2832840
  58.5984130   5.7910520  52.2763330  59.0172240   6.6343250  52.1039570
  57.6792760   5.9282560  52.0470110  56.4491550  12.0963530  53.3921060
  55.9112640  12.8209590  53.0729760  56.7025510  11.6193870  52.6018400
  59.3053760  13.3314740  53.6507710  59.2312460  14.2349880  53.9580080
  58.4032600  13.0126640  53.6229780  53.4935250   7.8700300  39.5021070
  53.9310120   8.4129970  40.1578650  53.9782980   7.0447250  39.5117410
  50.7081050  10.6589330  46.9541330  51.0384060   9.7910390  46.7219970
  51.1372050  10.8647850  47.7846290  55.3042970   8.9898340  44.6143300
  55.0038510   8.8663310  45.5147210  55.1980460   8.1306930  44.2059030
  51.1971260  11.5259920  49.6922960  50.7602250  11.7060720  50.5247110
  51.7648940  12.2834540  49.5504680  51.0295690   4.0380150  46.0511840
  50.3744530   3.7691790  45.4071540  51.8673640   3.9284630  45.6013820
  52.0671620   4.4232720  50.5915180  52.4344660   4.3360120  51.4711200
  51.4982440   3.6599270  50.4922040  53.4823700   8.9365410  55.7535330
  53.4393330   8.5658320  56.6349790  53.6134710   9.8742980  55.8937150
  57.1829730  10.4925000  51.3545050  56.9421090  10.7599560  50.4675570
  58.1232370  10.6630730  51.4095910  53.3211730  11.8827660  52.8733110
  52.7272050  11.7512360  53.6123150  53.3135570  11.0465800  52.4075210
  52.9523960   9.2486040  51.8241150  52.2258020   8.6291330  51.7567100
  53.0133110   9.6426650  50.9539230  56.5569060  11.4631040  48.6090560
  57.0734080  10.8518400  48.0838820  57.2066440  11.9659820  49.1001570
  59.2964560  12.3539530  49.4359540  59.5842370  12.0993830  48.5592550
  59.8087780  11.8016890  50.0265110  51.2353960  12.5660430  45.0337910
  51.0676000  11.9331110  45.7319800  50.3688470  12.7719830  44.6832100
  52.8416660  11.2593660  42.4788050  52.3164280  11.6401690  41.7750010
  52.7661240  11.8844430  43.1997760  55.4409630  13.2076040  41.3537300
  56.1728450  12.9235320  40.8061190  55.7003300  12.9689320  42.2436680
  54.6024420   9.3240770  41.3583630  53.9733300   9.7925870  41.9069460
  54.7172250   8.4789990  41.7929820  54.2058010   5.4645260  30.2669860
  53.3742890   5.2093970  30.6666370  54.8138990   5.5356030  31.0027780
  54.1859270   9.4985350  30.4627880  54.4887310   8.6083090  30.2838100
  54.9302860  10.0555570  30.2350130  50.5782970   3.0252800  29.9351950
  51.1499080   2.2575000  29.9355590  50.5784510   3.3241560  29.0258560
  59.6301170   7.8282640  29.3964260  59.5609450   6.8872580  29.2353390
  60.3921030   7.9184050  29.9686830  56.1658030   6.2558760  31.8612730
  55.8327410   6.8827680  32.5033800  56.3424710   6.7820640  31.0814400
  55.3777130   8.2239560  33.6761910  55.9951130   8.8990640  33.3946360
  54.5170250   8.6327540  33.5849410  50.6709470   7.4139420  22.5568760
  50.2937450   7.9026520  21.8253660  50.9282540   8.0864700  23.1875290
  56.2735800   4.4069380  27.5334120  55.8692800   3.6946630  27.0380020
  56.3598920   4.0622620  28.4222160  56.7417500   8.0936940  29.6973330
  56.4445790   7.4882410  29.0181110  57.6917320   8.1314250  29.5862690
  55.8335930   7.8318630  36.3481130  54.9364460   8.0558600  36.5954530
  55.8588800   7.9553570  35.3992530  54.6607150   4.7031950  34.9238500
  54.5214920   5.5754750  35.2925900  53.7788510   4.3604760  34.7786440
  56.4587500  10.6453650  37.1323650  56.4302930  11.0496600  36.2652080
  56.2952470   9.7164010  36.9695250  52.9740430   3.3014360  25.0340770
  52.8538030   4.0276450  24.4222040  52.6641320   2.5317270  24.5568680
  50.6125800   6.4729500  30.8409410  50.6906220   6.6078270  29.8965130
  51.2267480   5.7645390  31.0337530  51.8573430   8.1729690  27.2515590
  51.4501510   8.3144280  26.3969190  52.7486440   7.8889850  27.0486800
  56.1295090  12.3875470  25.3638260  55.9537570  11.4711010  25.1506060
  55.2750830  12.7462760  25.6036060  50.6685320   7.5143670  33.3803870
  50.8316360   7.0449030  32.5623240  51.1337770   7.0067230  34.0452710
  55.2318310   1.7683000  26.1445690  55.0059230   1.5520170  27.0492310
  54.4510840   2.2011460  25.7991660  57.6717520   2.6668580  36.8105960
  57.5761120   1.7263310  36.6606360  58.5149500   2.8883650  36.4154030
  57.1655120   2.9883080  21.6632950  56.5972020   2.5401330  21.0368860
  57.8744120   3.3475860  21.1298100  52.2424300   6.8895100  35.5399680
  51.8579090   6.2488770  36.1382640  52.5536490   7.5931220  36.1094410
  58.3921440   3.7371640  31.0208300  58.7591570   3.2630210  31.7669640
  58.2026500   4.6113210  31.3616640  56.1820810   2.7780280  33.3392510
  55.8777880   3.6572260  33.5642870  57.1367270   2.8380070  33.3749950
  54.7102600   6.9841270  23.9359360  53.9364860   6.4438890  23.7758080
  55.4397230   6.4647880  23.5977120  54.7540000   6.6521650  27.5738170
  55.2718670   5.8489910  27.5195060  54.3024020   6.5900790  28.4155000
  59.6409500   7.9187930  22.8465470  59.9825200   8.6630160  22.3508790
  58.8122210   8.2319050  23.2090300  52.2384540   3.6183020  34.4863870
  51.8799480   4.2836870  35.0737210  51.9439100   2.7866570  34.8576490
  55.4397660   4.0767260  37.3703420  55.1397800   4.2224440  36.4731240
  56.2108900   3.5172550  37.2776810  58.6100190   8.0001460  25.6181390
  59.2971320   8.5470670  25.9988980  57.8232610   8.5442190  25.6531000
  50.7492590   3.6174280  21.1098470  51.6187440   3.8999080  21.3934390
  50.2582910   4.4310150  20.9947280  57.9127400   5.0047490  25.2306750
  58.3690180   5.8152740  25.4566940  57.5615610   4.6870630  26.0625240
  51.1163840  12.8301660  21.6760100  51.4761480  13.4291000  21.0217370
  50.9756180  13.3761550  22.4495130  51.1005700  11.0956520  36.1502500
  51.2096820  10.1551260  36.0097890  50.4486260  11.3611270  35.5016230
  59.0918290   9.3672410  37.5500620  58.7715160   8.6481650  38.0946310
  58.4176650  10.0427480  37.6236680  57.1332460  10.2132860  22.4933770
  57.1242560  10.9462550  21.8778280  56.2130820   9.9664440  22.5860730
  52.7339100   5.4347750  23.2380530  52.1267050   6.1746650  23.2475830
  53.2088450   5.5247110  22.4118730  60.1192060  10.2761100  21.1558960
  60.2204040  10.0725090  20.2260940  59.2193800  10.0219380  21.3606740
  58.7610170  12.7947420  25.8506630  59.0151670  12.7568810  24.9286000
  57.8122650  12.6680750  25.8434880  54.7444390   5.3958900  20.9869100
  55.5107660   5.2840260  21.5494530  54.8219080   4.6996870  20.3345870
  53.4391150   2.8283970  21.6701990  53.5194740   1.8811480  21.7819390
  54.3310900   3.1590850  21.7762650  54.2405860  12.9779360  28.7736530
  54.9768340  12.4294820  29.0445100  54.6246780  13.8435370  28.6342520
  51.1251340   9.0452930  24.6478040  50.1991120   9.2874070  24.6383450
  51.5907770   9.8727190  24.5262790  53.2464140  12.1625430  37.9622110
  54.0476870  12.4837480  38.3757510  52.7315960  11.8021010  38.6842020
  57.3508170  12.1509670  20.5962100  58.1436780  12.4398500  20.1443890
  56.8312520  11.7201840  19.9174580  50.9661950   4.6498890  36.9058160
  51.4700970   4.0706170  37.4774390  50.2269370   4.9339120  37.4434530
  57.8685570   7.3713080  20.4604450  57.7636210   6.7565430  21.1865830
  57.7009790   6.8478970  19.6767460  58.0199890   6.0569880  36.4393680
  57.2545560   6.6254880  36.3548350  58.2015850   5.7646090  35.5461910
  52.9985030   2.7928480  37.8008230  53.0390370   2.4942350  38.7093460
  53.8530530   3.1936090  37.6415750  56.7763420   5.3924030  22.9611740
  57.1979840   5.2263900  23.8043130  56.9014260   4.5824260  22.4666880
  59.2891060   4.4161640  20.2088840  59.8096720   3.7010660  19.8429990
  59.9359460   5.0547510  20.5089350  58.5984130   5.7910520  33.5019840
  59.0172240   6.6343250  33.3296080  57.6792760   5.9282560  33.2726620
  56.4491550  12.0963530  34.6177570  55.9112640  12.8209590  34.2986270
  56.7025510  11.6193870  33.8274910  59.3053760  13.3314740  34.8764220
  59.2312460  14.2349880  35.1836590  58.4032600  13.0126640  34.8486290
  53.4935250   7.8700300  20.7277580  53.9310120   8.4129970  21.3835160
  53.9782980   7.0447250  20.7373920  50.7081050  10.6589330  28.1797840
  51.0384060   9.7910390  27.9476480  51.1372050  10.8647850  29.0102800
  55.3042970   8.9898340  25.8399810  55.0038510   8.8663310  26.7403720
  55.1980460   8.1306930  25.4315540  51.1971260  11.5259920  30.9179470
  50.7602250  11.7060720  31.7503620  51.7648940  12.2834540  30.7761190
  51.0295690   4.0380150  27.2768350  50.3744530   3.7691790  26.6328050
  51.8673640   3.9284630  26.8270330  52.0671620   4.4232720  31.8171690
  52.4344660   4.3360120  32.6967710  51.4982440   3.6599270  31.7178550
  53.4823700   8.9365410  36.9791840  53.4393330   8.5658320  37.8606300
  53.6134710   9.8742980  37.1193660  57.1829730  10.4925000  32.5801560
  56.9421090  10.7599560  31.6932080  58.1232370  10.6630730  32.6352420
  53.3211730  11.8827660  34.0989620  52.7272050  11.7512360  34.8379660
  53.3135570  11.0465800  33.6331720  52.9523960   9.2486040  33.0497660
  52.2258020   8.6291330  32.9823610  53.0133110   9.6426650  32.1795740
  56.5569060  11.4631040  29.8347070  57.0734080  10.8518400  29.3095330
  57.2066440  11.9659820  30.3258080  59.2964560  12.3539530  30.6616050
  59.5842370  12.0993830  29.7849060  59.8087780  11.8016890  31.2521620
  51.2353960  12.5660430  26.2594420  51.0676000  11.9331110  26.9576310
  50.3688470  12.7719830  25.9088610  52.8416660  11.2593660  23.7044560
  52.3164280  11.6401690  23.0006520  52.7661240  11.8844430  24.4254270
  59.3636920  13.2755630  38.0284250  60.2904230  13.0399900  38.0720210
  59.3487350  14.1027630  37.5470280  55.4409630  13.2076040  22.5793810
  56.1728450  12.9235320  22.0317700  55.7003300  12.9689320  23.4693190
  54.6024420   9.3240770  22.5840140  53.9733300   9.7925870  23.1325970
  54.7172250   8.4789990  23.0186330  54.2058010   5.4645260  11.4926370
  53.3742890   5.2093970  11.8922880  54.8138990   5.5356030  12.2284290
  54.1859270   9.4985350  11.6884390  54.4887310   8.6083090  11.5094610
  54.9302860  10.0555570  11.4606640  50.5782970   3.0252800  11.1608460
  51.1499080   2.2575000  11.1612100  50.5784510   3.3241560  10.2515070
  59.6301170   7.8282640  10.6220770  59.5609450   6.8872580  10.4609900
  60.3921030   7.9184050  11.1943340  56.1658030   6.2558760  13.0869240
  55.8327410   6.8827680  13.7290310  56.3424710   6.7820640  12.3070910
  55.3777130   8.2239560  14.9018420  55.9951130   8.8990640  14.6202870
  54.5170250   8.6327540  14.8105920  50.6709470   7.4139420   3.7825270
  50.2937450   7.9026520   3.0510170  50.9282540   8.0864700   4.4131800
  56.2735800   4.4069380   8.7590630  55.8692800   3.6946630   8.2636530
  56.3598920   4.0622620   9.6478670  56.7417500   8.0936940  10.9229840
  56.4445790   7.4882410  10.2437620  57.6917320   8.1314250  10.8119200
  55.8335930   7.8318630  17.5737640  54.9364460   8.0558600  17.8211040
  55.8588800   7.9553570  16.6249040  54.6607150   4.7031950  16.1495010
  54.5214920   5.5754750  16.5182410  53.7788510   4.3604760  16.0042950
  56.4587500  10.6453650  18.3580160  56.4302930  11.0496600  17.4908590
  56.2952470   9.7164010  18.1951760  52.9740430   3.3014360   6.2597280
  52.8538030   4.0276450   5.6478550  52.6641320   2.5317270   5.7825190
  50.6125800   6.4729500  12.0665920  50.6906220   6.6078270  11.1221640
  51.2267480   5.7645390  12.2594040  51.8573430   8.1729690   8.4772100
  51.4501510   8.3144280   7.6225700  52.7486440   7.8889850   8.2743310
  56.1295090  12.3875470   6.5894770  55.9537570  11.4711010   6.3762570
  55.2750830  12.7462760   6.8292570  50.6685320   7.5143670  14.6060380
  50.8316360   7.0449030  13.7879750  51.1337770   7.0067230  15.2709220
  55.2318310   1.7683000   7.3702200  55.0059230   1.5520170   8.2748820
  54.4510840   2.2011460   7.0248170  57.6717520   2.6668580  18.0362470
  57.5761120   1.7263310  17.8862870  58.5149500   2.8883650  17.6410540
  57.1655120   2.9883080   2.8889460  56.5972020   2.5401330   2.2625370
  57.8744120   3.3475860   2.3554610  52.2424300   6.8895100  16.7656190
  51.8579090   6.2488770  17.3639150  52.5536490   7.5931220  17.3350920
  58.3921440   3.7371640  12.2464810  58.7591570   3.2630210  12.9926150
  58.2026500   4.6113210  12.5873150  56.1820810   2.7780280  14.5649020
  55.8777880   3.6572260  14.7899380  57.1367270   2.8380070  14.6006460
  54.7102600   6.9841270   5.1615870  53.9364860   6.4438890   5.0014590
  55.4397230   6.4647880   4.8233630  54.7540000   6.6521650   8.7994680
  55.2718670   5.8489910   8.7451570  54.3024020   6.5900790   9.6411510
  59.6409500   7.9187930   4.0721980  59.9825200   8.6630160   3.5765300
  58.8122210   8.2319050   4.4346810  52.2384540   3.6183020  15.7120380
  51.8799480   4.2836870  16.2993720  51.9439100   2.7866570  16.0833000
  55.4397660   4.0767260  18.5959930  55.1397800   4.2224440  17.6987750
  56.2108900   3.5172550  18.5033320  58.6100190   8.0001460   6.8437900
  59.2971320   8.5470670   7.2245490  57.8232610   8.5442190   6.8787510
  50.7492590   3.6174280   2.3354980  51.6187440   3.8999080   2.6190900
  50.2582910   4.4310150   2.2203790  57.9127400   5.0047490   6.4563260
  58.3690180   5.8152740   6.6823450  57.5615610   4.6870630   7.2881750
  51.1163840  12.8301660   2.9016610  51.4761480  13.4291000   2.2473880
  50.9756180  13.3761550   3.6751640  51.1005700  11.0956520  17.3759010
  51.2096820  10.1551260  17.2354400  50.4486260  11.3611270  16.7272740
  59.0918290   9.3672410  18.7757130  58.7715160   8.6481650  19.3202820
  58.4176650  10.0427480  18.8493190  57.1332460  10.2132860   3.7190280
  57.1242560  10.9462550   3.1034790  56.2130820   9.9664440   3.8117240
  52.7339100   5.4347750   4.4637040  52.1267050   6.1746650   4.4732340
  53.2088450   5.5247110   3.6375240  60.1192060  10.2761100   2.3815470
  60.2204040  10.0725090   1.4517450  59.2193800  10.0219380   2.5863250
  58.7610170  12.7947420   7.0763140  59.0151670  12.7568810   6.1542510
  57.8122650  12.6680750   7.0691390  54.7444390   5.3958900   2.2125610
  55.5107660   5.2840260   2.7751040  54.8219080   4.6996870   1.5602380
  53.4391150   2.8283970   2.8958500  53.5194740   1.8811480   3.0075900
  54.3310900   3.1590850   3.0019160  54.2405860  12.9779360   9.9993040
  54.9768340  12.4294820  10.2701610  54.6246780  13.8435370   9.8599030
  51.1251340   9.0452930   5.8734550  50.1991120   9.2874070   5.8639960
  51.5907770   9.8727190   5.7519300  53.2464140  12.1625430  19.1878620
  54.0476870  12.4837480  19.6014020  52.7315960  11.8021010  19.9098530
  50.9661950   4.6498890  18.1314670  51.4700970   4.0706170  18.7030900
  50.2269370   4.9339120  18.6691040  58.0199890   6.0569880  17.6650190
  57.2545560   6.6254880  17.5804860  58.2015850   5.7646090  16.7718420
  52.9985030   2.7928480  19.0264740  53.0390370   2.4942350  19.9349970
  53.8530530   3.1936090  18.8672260  56.7763420   5.3924030   4.1868250
  57.1979840   5.2263900   5.0299640  56.9014260   4.5824260   3.6923390
  58.5984130   5.7910520  14.7276350  59.0172240   6.6343250  14.5552590
  57.6792760   5.9282560  14.4983130  56.4491550  12.0963530  15.8434080
  55.9112640  12.8209590  15.5242780  56.7025510  11.6193870  15.0531420
  59.3053760  13.3314740  16.1020730  59.2312460  14.2349880  16.4093100
  58.4032600  13.0126640  16.0742800  53.4935250   7.8700300   1.9534090
  53.9310120   8.4129970   2.6091670  53.9782980   7.0447250   1.9630430
  50.7081050  10.6589330   9.4054350  51.0384060   9.7910390   9.1732990
  51.1372050  10.8647850  10.2359310  55.3042970   8.9898340   7.0656320
  55.0038510   8.8663310   7.9660230  55.1980460   8.1306930   6.6572050
  51.1971260  11.5259920  12.1435980  50.7602250  11.7060720  12.9760130
  51.7648940  12.2834540  12.0017700  51.0295690   4.0380150   8.5024860
  50.3744530   3.7691790   7.8584560  51.8673640   3.9284630   8.0526840
  52.0671620   4.4232720  13.0428200  52.4344660   4.3360120  13.9224220
  51.4982440   3.6599270  12.9435060  53.4823700   8.9365410  18.2048350
  53.4393330   8.5658320  19.0862810  53.6134710   9.8742980  18.3450170
  57.1829730  10.4925000  13.8058070  56.9421090  10.7599560  12.9188590
  58.1232370  10.6630730  13.8608930  53.3211730  11.8827660  15.3246130
  52.7272050  11.7512360  16.0636170  53.3135570  11.0465800  14.8588230
  52.9523960   9.2486040  14.2754170  52.2258020   8.6291330  14.2080120
  53.0133110   9.6426650  13.4052250  56.5569060  11.4631040  11.0603580
  57.0734080  10.8518400  10.5351840  57.2066440  11.9659820  11.5514590
  59.2964560  12.3539530  11.8872560  59.5842370  12.0993830  11.0105570
  59.8087780  11.8016890  12.4778130  51.2353960  12.5660430   7.4850930
  51.0676000  11.9331110   8.1832820  50.3688470  12.7719830   7.1345120
  52.8416660  11.2593660   4.9301070  52.3164280  11.6401690   4.2263030
  52.7661240  11.8844430   5.6510780  59.3636920  13.2755630  19.2540760
  60.2904230  13.0399900  19.2976720  59.3487350  14.1027630  18.7726790
  55.4409630  13.2076040   3.8050320  56.1728450  12.9235320   3.2574210
  55.7003300  12.9689320   4.6949700  54.6024420   9.3240770   3.8096650
  53.9733300   9.7925870   4.3582480  54.7172250   8.4789990   4.2442840
  43.2830650  59.6976900  46.2828320  43.2024700  58.7831510  46.0120030
  42.8695070  60.1943970  45.5768030  41.4148690  61.4755920  48.1637590
  40.6390790  60.9956360  48.4536160  42.0661620  60.7961570  47.9893750
  35.4314520  61.7875730  49.0413350  34.5999400  61.5324440  49.4409860
  36.0395500  61.8586500  49.7771270  33.8406470  56.7477620  42.8255740
  32.9523170  57.0893590  42.7235620  34.1247660  56.5477940  41.9336570
  31.8039480  59.3483270  48.7095440  32.3755590  58.5805470  48.7099080
  31.8041020  59.6472030  47.8002050  33.0464350  54.7567630  50.4964370
  32.8667190  53.8593380  50.7767130  32.6444430  55.3039500  51.1711320
  41.8862850  56.9583490  48.3976680  42.2627670  56.0855370  48.2850350
  41.7882360  57.2942190  47.5067120  36.0167860  55.3309120  43.8594120
  36.1234610  56.2312850  44.1662880  35.1060220  55.2827090  43.5688770
  45.6686970  54.4533930  45.3305020  46.4896590  53.9630500  45.3730500
  45.7021050  55.0431590  46.0836860  33.6651020  57.2528130  49.1046710
  34.3461130  57.5166500  49.7234110  33.3499070  56.4129000  49.4384720
  37.8575590  58.2995490  48.1919300  38.3653810  58.7976460  48.8324320
  38.3888830  57.5230690  48.0158660  49.9586520  56.4700680  51.8948650
  49.2538690  56.8582390  51.3763760  50.2244440  57.1650970  52.4969580
  36.1411690  52.9394050  52.4582720  36.1430130  53.4566440  51.6528620
  35.3116000  52.4624230  52.4352650  37.3914540  62.5789230  50.6356220
  37.0583920  63.2058150  51.2777290  37.5681220  63.1051110  49.8557890
  45.9048450  56.3934310  48.1032560  45.2004020  56.6819200  48.6835670
  46.2660610  57.2034420  47.7432120  35.8227020  54.6504010  50.4653170
  36.1643830  55.4946060  50.1707040  34.8842830  54.7987750  50.5818510
  48.9735370  55.8389100  48.4941770  48.0260280  55.8728080  48.6257200
  49.2985360  56.6528050  48.8791130  39.5054910  52.1386280  46.7897760
  39.8129890  51.5833170  46.0733260  38.5755610  52.2730740  46.6070750
  44.4555410  62.7583410  50.4087830  44.8724200  62.5443520  49.5741290
  45.1795230  63.0156200  50.9796450  41.8935670  60.2035110  43.5257880
  40.9664950  60.1372490  43.7546350  42.0460490  61.1415240  43.4113120
  41.8804750  56.4752110  40.5225040  40.9408420  56.6366070  40.6077500
  42.1988010  57.1937790  39.9761030  48.4017510  61.1570630  50.5004070
  47.5736140  61.2263720  50.0254200  48.9967990  61.7424940  50.0319900
  45.9232960  61.7655410  44.0293130  45.3045380  61.4274960  43.3819430
  45.9057410  61.1215170  44.7372320  45.3659520  57.9439950  51.4458940
  44.9530700  58.7693660  51.6998930  44.6335470  57.3584990  51.2535300
  37.4992310  60.7299850  46.3077610  37.0949310  60.0177100  45.8123510
  37.5855430  60.3853090  47.1965650  36.2120930  57.5043060  50.0876650
  36.7635520  57.6138400  49.3129900  36.7264440  57.8780660  50.8031880
  44.0997660  61.0042220  41.0365880  44.5390940  60.1664650  40.8903700
  44.8126080  61.6371620  41.1230020  35.8863660  61.0262420  53.6981990
  35.7471430  61.8985220  54.0669390  35.0045020  60.6835230  53.5529930
  47.6814800  52.2585030  39.3506920  47.3687460  52.3511860  40.2505990
  48.4427270  52.8366060  39.3004350  34.1996940  59.6244830  43.8084260
  34.0794540  60.3506920  43.1965530  33.8897830  58.8547740  43.3312170
  31.8382310  62.7959970  49.6152900  31.9162730  62.9308740  48.6708620
  32.4523990  62.0875860  49.8081020  48.8916090  56.9956530  55.3281060
  48.2760360  57.5036200  54.7996520  48.5712510  56.0954860  55.2707000
  36.6660600  52.9679900  47.1907930  36.2228750  53.7489440  46.8592450
  37.2245590  53.2909790  47.8978870  40.9530410  55.8348420  52.7943250
  40.4909780  56.0431440  53.6063190  40.5508520  55.0207770  52.4913920
  45.9534920  57.0557370  53.9239910  45.1028510  56.7563120  54.2448980
  45.7936710  57.2999380  53.0123730  43.0484630  58.5559120  56.0238700
  43.3738040  57.7222870  55.6840930  43.8364960  59.0787640  56.1717030
  39.7819420  52.5890600  42.0713760  39.1573600  52.5850470  42.7967070
  39.6949540  51.7221560  41.6749730  38.7036500  53.5127230  49.0497530
  39.0008830  54.4190060  48.9689550  39.2522060  53.0246010  48.4357100
  36.4574820  58.0913470  44.9189180  36.2315740  57.8750640  45.8235800
  35.6767350  58.5241930  44.5735150  43.6872580  58.0976840  43.5179830
  43.0881470  58.8212640  43.3343450  44.2352190  58.0353620  42.7356280
  38.8974030  58.9899050  55.5849450  38.8017630  58.0493780  55.4349850
  39.7406010  59.2114120  55.1897520  42.2937450  56.7340380  45.5483110
  42.6867020  57.0512580  44.7351800  42.6554300  55.8552260  45.6627630
  34.0284570  55.4012720  53.7383230  33.6347960  56.2487930  53.9456010
  33.3402970  54.7639090  53.9291870  31.3301620  53.3241180  47.7713310
  31.0414670  53.8944040  48.4838290  32.0747380  52.8445630  48.1344540
  31.5171850  57.2661300  38.9816030  31.4346520  58.2092060  39.1231020
  31.1654910  57.1236210  38.1028380  42.8792590  59.3246130  49.6433890
  42.1473710  59.8332940  49.9923990  42.4816930  58.5076110  49.3422670
  39.3169980  56.0000330  48.0486380  39.3206040  55.5590280  47.1990920
  40.2121100  56.3217660  48.1558200  35.1672360  55.8826820  47.0080590
  34.8272410  56.3602050  47.7647640  34.4049680  55.4291940  46.6481690
  39.3790130  57.0012410  41.0393140  39.5002950  56.9598890  41.9878960
  38.9938640  57.8636560  40.8839870  43.3418500  54.7779810  49.0556830
  43.3591240  55.2288460  49.8998680  43.0934080  53.8785450  49.2690270
  38.3911630  59.3113550  40.4376440  37.8228530  58.8631800  39.8112350
  39.1000630  59.6706330  39.9041590  46.7689250  52.1911990  54.8943210
  47.0935020  51.4601650  55.4201190  46.8045760  51.8725630  53.9924200
  39.6177950  60.0602110  49.7951790  39.9848080  59.5860680  50.5413130
  39.4283010  60.9343680  50.1360130  32.4818440  54.8045800  45.9245260
  32.1965360  54.4401470  46.7623880  32.4197300  54.0726260  45.3108400
  37.4077320  59.1010750  52.1136000  37.1034390  59.9802730  52.3386360
  38.3623780  59.1610540  52.1493440  46.6947090  62.3037100  48.5029240
  47.4146210  62.7992390  48.1125350  46.4928910  61.6254990  47.8583110
  42.1557030  53.6975060  42.6458630  41.3421640  53.1988230  42.5703940
  41.9618980  54.5373310  42.2294980  42.0765890  62.3746160  54.3898240
  42.0103200  61.4541830  54.1355830  41.4471030  62.4721600  55.1042880
  44.8705420  58.0694710  40.9420790  45.7585040  58.3811940  40.7672130
  44.8410510  57.1966960  40.5501370  35.9796510  62.9752120  46.3481660
  36.4975180  62.1720380  46.2938550  35.5280530  62.9131260  47.1898490
  33.4641050  59.9413490  53.2607360  33.1055990  60.6067340  53.8480700
  33.1695610  59.1097040  53.6319980  36.6654170  60.3997730  56.1446910
  36.3654310  60.5454910  55.2474730  37.4365410  59.8403020  56.0520300
  47.1419690  59.3806550  40.4100650  47.0583410  59.8120770  39.5597090
  47.8613880  59.8404900  40.8427470  48.2193830  61.8374070  53.4870620
  47.4942020  62.4302850  53.2900010  48.7469290  61.8297610  52.6883990
  31.9749100  59.9404750  39.8841960  32.8443950  60.2229550  40.1677880
  31.4839420  60.7540620  39.7690770  39.1383910  61.3277960  44.0050240
  39.5946690  62.1383210  44.2310430  38.7872120  61.0101100  44.8368730
  35.0395690  51.6715610  44.4772760  34.9110320  51.6633510  45.4257680
  34.2157710  52.0098700  44.1263770  32.0389620  53.4306730  53.9379460
  31.3248140  53.6303650  54.5432070  32.4584660  52.6546300  54.3094260
  33.9595610  61.7578220  42.0124020  33.3523560  62.4977120  42.0219320
  34.4344960  61.8477580  41.1862220  43.5328400  55.9229040  51.6880910
  43.9009220  55.1024250  52.0160480  42.6726600  55.9830930  52.1036560
  46.8990430  54.8785980  42.4968470  46.2703590  54.9831650  41.7826700
  46.4042350  55.0982760  43.2862350  38.8674460  57.1571930  43.9126350
  38.1590610  57.6258270  44.3539960  39.1518940  56.4993940  44.5471540
  40.4930390  58.5768630  51.9118880  40.9915640  59.0514450  52.5770730
  40.6353340  57.6532150  52.1188910  42.8989890  53.8822590  45.3522140
  42.7757670  53.9008720  44.4031650  43.8474450  53.9301530  45.4720540
  37.0709480  55.4657010  41.2877060  37.9200010  55.9027160  41.2217250
  36.7040750  55.7777270  42.1149120  47.6997250  54.7936590  52.7547270
  47.1970850  55.5341990  53.0941080  48.5153910  55.1820590  52.4384060
  45.9919260  60.0369770  46.2008630  45.0509400  60.0520000  46.3756320
  46.3063330  59.2505730  46.6468930  35.9700900  61.7189370  39.7612590
  36.7364170  61.6070730  40.3238020  36.0475590  61.0227340  39.1089360
  34.6647660  59.1514440  40.4445480  34.7451250  58.2041950  40.5562880
  35.5567410  59.4821320  40.5506140  32.1918460  60.9729360  55.6801650
  32.6957480  60.3936640  56.2517880  31.4525880  61.2569590  56.2178020
  39.2456400  62.3800350  55.2137170  38.4802070  62.9485350  55.1291840
  39.4272360  62.0876560  54.3205400  42.3344810  62.7563580  39.8389930
  41.7854910  63.2032880  40.4832670  42.9564070  62.2512830  40.3627600
  38.0019930  61.7154500  41.7355230  38.4236350  61.5494370  42.5786620
  38.1270770  60.9054730  41.2410370  36.1647350  57.6951050  54.5426210
  35.6343810  57.2042000  53.9149550  36.8335420  58.1235250  54.0084140
  40.5147570  60.7392110  38.9832330  41.0353230  60.0241130  38.6173480
  41.1615970  61.3777980  39.2832840  45.0625410  62.1620510  54.3067400
  45.4766430  62.3165590  55.1557820  44.1276410  62.2875730  54.4693180
  45.5347580  59.5016670  56.3106550  46.1168350  58.7468990  56.2227030
  45.7109350  60.0324110  55.5338030  36.6519650  54.6613420  54.6223500
  36.5576520  54.0434170  53.8974370  36.0717040  55.3879710  54.3953410
  39.4181090  53.2186660  51.6550890  38.9698390  53.2410920  50.8096440
  38.7846290  52.8205680  52.2521190  39.8240640  62.1140990  52.2763330
  40.2428750  62.9573720  52.1039570  38.9049270  62.2513030  52.0470110
  42.1604540  59.8457170  53.6601170  42.2800750  59.2498310  54.3996010
  43.0198540  59.8826860  53.2402470  44.4992440  60.3994360  52.2363680
  43.9727660  60.9236980  51.6328820  44.8423780  61.0321750  52.8673410
  36.8978830  57.7887730  38.6813390  36.6967890  56.9255090  39.0426730
  36.7270880  57.7021090  37.7434990  38.9273310  56.3878520  54.9176990
  39.5173000  56.0794370  55.6054810  38.1093550  55.9158270  55.0736890
  43.7466740  56.0044330  55.1510010  43.0582260  55.3425870  55.0860000
  44.4672760  55.5582600  55.5958470  44.3767140  52.5995960  41.2100270
  44.6569430  51.7563860  41.5659690  43.6032870  52.8319070  41.7239020
  35.6961630  54.8888350  38.6691270  35.9987530  54.8955780  37.7610420
  36.4356220  54.5386210  39.1658930  38.9146560  53.8322970  39.6547470
  38.5668560  53.1546960  39.0749920  39.1159330  53.3712480  40.4690860
  48.7547860  61.8372690  41.8204180  49.5166770  62.4069340  41.9263870
  48.7702230  61.2699890  42.5912490  32.2552200  60.3610620  46.0511840
  31.6001040  60.0922260  45.4071540  33.0930150  60.2515100  45.6013820
  48.8067030  62.1307060  38.9776700  49.0815870  63.0385940  38.8495920
  48.6177770  62.0669590  39.9138690  45.2042640  55.1551910  40.2730330
  45.6227520  54.9682890  39.4326990  44.8978700  54.3030960  40.5833260
  48.7032370  60.0676050  43.9706130  48.3275970  59.3003980  43.5387420
  47.9735490  60.4498750  44.4581060  33.2928130  60.7463190  50.5915180
  33.6601170  60.6590590  51.4711200  32.7238950  59.9829740  50.4922040
  48.0931990  59.2147570  53.6045650  47.8618080  58.9860320  52.7043600
  48.3536540  60.1347120  53.5590540  32.8444130  57.6572280  54.4973600
  31.9500180  57.6239040  54.8367310  33.3841680  57.8559070  55.2624850
  46.5320060  54.4404000  56.3825350  47.4090240  54.4487400  56.7659350
  46.5440900  53.7034840  55.7717700  31.4690280  57.5709550  41.9937170
  30.5654360  57.8339750  41.8188830  31.9530900  57.8420720  41.2137130
  47.9783330  58.2933540  47.2713370  48.5020810  57.7996190  46.6403540
  48.5642750  58.4283900  48.0160940  48.1573050  58.3773410  50.7932920
  47.2075760  58.3436950  50.9077910  48.3386060  59.2873520  50.5582690
  34.0117490  56.6275090  39.9031550  34.7209190  56.2058310  39.4178830
  33.2957430  56.6950320  39.2714900  33.6591650  52.6814420  38.9434200
  34.3819780  53.2223360  39.2615420  33.9316170  52.4077840  38.0675740
  47.4683300  57.5506890  43.2105780  47.9642420  57.3177760  43.9954660
  47.2699370  56.7118730  42.7943420  33.3483840  51.9320610  48.8456820
  33.9960030  51.3817990  48.4051980  33.7685680  52.1863760  49.6672630
  48.8970460  56.1867840  45.7443460  48.7869740  56.0323880  46.6825730
  49.6578050  55.6588780  45.5018870  47.2436180  52.1261970  52.2026460
  47.8808400  52.7396110  52.5685650  47.3911070  52.1622630  51.2575690
  49.7860730  54.0175760  38.9849600  50.7110040  53.8856940  38.7767890
  49.7636520  54.0968580  39.9386050  49.8599220  54.7886420  41.6106310
  49.0650720  54.7231540  42.1399220  50.0642500  55.7237060  41.5991660
  33.1015840  52.0876280  51.5882140  32.7530660  52.5440100  52.3540320
  32.7703540  51.1933410  51.6704570  40.6140660  53.2788160  55.1101560
  40.5529550  53.8709990  55.8596970  41.5541040  53.1714120  54.9651820
  43.2515220  52.9358220  54.7493850  43.8655630  53.2537510  54.0874930
  43.7964780  52.4506810  55.3689710  33.7736480  51.6152480  54.8632910
  34.3219470  51.4340530  54.0999020  33.8391790  50.8246590  55.3989220
  43.9923260  51.4990360  51.0763140  43.1183100  51.8325470  50.8736070
  43.8834010  51.0263540  51.9015010  44.8995240  53.7061230  52.4604860
  44.5708600  52.8912990  52.0806590  45.8477540  53.6631040  52.3370550
  41.7398080  52.4160200  50.0156050  40.9569870  52.8905700  50.2952810
  41.4461010  51.5115030  49.9069230  46.2919150  53.1183300  48.0605140
  46.7327240  53.0628400  47.2126740  46.0226740  54.0341310  48.1315320
  48.1557720  52.7498540  46.0713960  48.0946120  51.8059760  45.9244980
  48.9349750  52.8578630  46.6167420  33.0838490  52.7207680  42.5369770
  33.8417850  52.8336560  41.9633800  32.6215660  53.5576880  42.4913200
  39.6252300  54.8346950  45.5272080  38.8126810  54.4603840  45.1867960
  40.1293940  54.0792030  45.8293270  44.1277280  51.4989400  46.7655150
  44.7306650  52.0709610  47.2403670  43.3870270  52.0628840  46.5429050
  47.2711880  51.9010960  42.0395430  47.4662510  52.7994410  42.3062860
  46.4841750  51.6698040  42.5328380  35.4563640  53.2471730  41.0771740
  35.9856400  52.4601530  40.9479690  36.0891960  53.9262920  41.3107270
  37.6501480  52.9846870  44.1317130  37.0204220  52.2834180  44.2987260
  37.1106620  53.7451000  43.9150290  37.7757040  52.2630850  56.5669620
  37.4941310  52.7664450  55.8030440  38.1576740  51.4652600  56.2011750
  43.2830650  59.6976900  27.5084830  43.2024700  58.7831510  27.2376540
  42.8695070  60.1943970  26.8024540  41.4148690  61.4755920  29.3894100
  40.6390790  60.9956360  29.6792670  42.0661620  60.7961570  29.2150260
  35.4314520  61.7875730  30.2669860  34.5999400  61.5324440  30.6666370
  36.0395500  61.8586500  31.0027780  33.8406470  56.7477620  24.0512250
  32.9523170  57.0893590  23.9492130  34.1247660  56.5477940  23.1593080
  31.8039480  59.3483270  29.9351950  32.3755590  58.5805470  29.9355590
  31.8041020  59.6472030  29.0258560  33.0464350  54.7567630  31.7220880
  32.8667190  53.8593380  32.0023640  32.6444430  55.3039500  32.3967830
  41.8862850  56.9583490  29.6233190  42.2627670  56.0855370  29.5106860
  41.7882360  57.2942190  28.7323630  36.0167860  55.3309120  25.0850630
  36.1234610  56.2312850  25.3919390  35.1060220  55.2827090  24.7945280
  45.6686970  54.4533930  26.5561530  46.4896590  53.9630500  26.5987010
  45.7021050  55.0431590  27.3093370  33.6651020  57.2528130  30.3303220
  34.3461130  57.5166500  30.9490620  33.3499070  56.4129000  30.6641230
  37.8575590  58.2995490  29.4175810  38.3653810  58.7976460  30.0580830
  38.3888830  57.5230690  29.2415170  49.9586520  56.4700680  33.1205160
  49.2538690  56.8582390  32.6020270  50.2244440  57.1650970  33.7226090
  36.1411690  52.9394050  33.6839230  36.1430130  53.4566440  32.8785130
  35.3116000  52.4624230  33.6609160  37.3914540  62.5789230  31.8612730
  37.0583920  63.2058150  32.5033800  37.5681220  63.1051110  31.0814400
  45.9048450  56.3934310  29.3289070  45.2004020  56.6819200  29.9092180
  46.2660610  57.2034420  28.9688630  35.8227020  54.6504010  31.6909680
  36.1643830  55.4946060  31.3963550  34.8842830  54.7987750  31.8075020
  48.9735370  55.8389100  29.7198280  48.0260280  55.8728080  29.8513710
  49.2985360  56.6528050  30.1047640  39.5054910  52.1386280  28.0154270
  39.8129890  51.5833170  27.2989770  38.5755610  52.2730740  27.8327260
  44.4555410  62.7583410  31.6344340  44.8724200  62.5443520  30.7997800
  45.1795230  63.0156200  32.2052960  41.8935670  60.2035110  24.7514390
  40.9664950  60.1372490  24.9802860  42.0460490  61.1415240  24.6369630
  41.8804750  56.4752110  21.7481550  40.9408420  56.6366070  21.8334010
  42.1988010  57.1937790  21.2017540  48.4017510  61.1570630  31.7260580
  47.5736140  61.2263720  31.2510710  48.9967990  61.7424940  31.2576410
  45.9232960  61.7655410  25.2549640  45.3045380  61.4274960  24.6075940
  45.9057410  61.1215170  25.9628830  45.3659520  57.9439950  32.6715450
  44.9530700  58.7693660  32.9255440  44.6335470  57.3584990  32.4791810
  37.4992310  60.7299850  27.5334120  37.0949310  60.0177100  27.0380020
  37.5855430  60.3853090  28.4222160  36.2120930  57.5043060  31.3133160
  36.7635520  57.6138400  30.5386410  36.7264440  57.8780660  32.0288390
  44.0997660  61.0042220  22.2622390  44.5390940  60.1664650  22.1160210
  44.8126080  61.6371620  22.3486530  35.8863660  61.0262420  34.9238500
  35.7471430  61.8985220  35.2925900  35.0045020  60.6835230  34.7786440
  47.6814800  52.2585030  20.5763430  47.3687460  52.3511860  21.4762500
  48.4427270  52.8366060  20.5260860  34.1996940  59.6244830  25.0340770
  34.0794540  60.3506920  24.4222040  33.8897830  58.8547740  24.5568680
  31.8382310  62.7959970  30.8409410  31.9162730  62.9308740  29.8965130
  32.4523990  62.0875860  31.0337530  48.8916090  56.9956530  36.5537570
  48.2760360  57.5036200  36.0253030  48.5712510  56.0954860  36.4963510
  36.6660600  52.9679900  28.4164440  36.2228750  53.7489440  28.0848960
  37.2245590  53.2909790  29.1235380  40.9530410  55.8348420  34.0199760
  40.4909780  56.0431440  34.8319700  40.5508520  55.0207770  33.7170430
  45.9534920  57.0557370  35.1496420  45.1028510  56.7563120  35.4705490
  45.7936710  57.2999380  34.2380240  43.0484630  58.5559120  37.2495210
  43.3738040  57.7222870  36.9097440  43.8364960  59.0787640  37.3973540
  39.7819420  52.5890600  23.2970270  39.1573600  52.5850470  24.0223580
  39.6949540  51.7221560  22.9006240  38.7036500  53.5127230  30.2754040
  39.0008830  54.4190060  30.1946060  39.2522060  53.0246010  29.6613610
  36.4574820  58.0913470  26.1445690  36.2315740  57.8750640  27.0492310
  35.6767350  58.5241930  25.7991660  43.6872580  58.0976840  24.7436340
  43.0881470  58.8212640  24.5599960  44.2352190  58.0353620  23.9612790
  38.8974030  58.9899050  36.8105960  38.8017630  58.0493780  36.6606360
  39.7406010  59.2114120  36.4154030  42.2937450  56.7340380  26.7739620
  42.6867020  57.0512580  25.9608310  42.6554300  55.8552260  26.8884140
  34.0284570  55.4012720  34.9639740  33.6347960  56.2487930  35.1712520
  33.3402970  54.7639090  35.1548380  40.6029620  55.4847690  38.0336480
  39.9127940  55.2919890  38.6682570  41.3461920  55.7682330  38.5660780
  31.3301620  53.3241180  28.9969820  31.0414670  53.8944040  29.7094800
  32.0747380  52.8445630  29.3601050  31.5171850  57.2661300  20.2072540
  31.4346520  58.2092060  20.3487530  31.1654910  57.1236210  19.3284890
  42.8792590  59.3246130  30.8690400  42.1473710  59.8332940  31.2180500
  42.4816930  58.5076110  30.5679180  39.3169980  56.0000330  29.2742890
  39.3206040  55.5590280  28.4247430  40.2121100  56.3217660  29.3814710
  35.1672360  55.8826820  28.2337100  34.8272410  56.3602050  28.9904150
  34.4049680  55.4291940  27.8738200  39.3790130  57.0012410  22.2649650
  39.5002950  56.9598890  23.2135470  38.9938640  57.8636560  22.1096380
  43.3418500  54.7779810  30.2813340  43.3591240  55.2288460  31.1255190
  43.0934080  53.8785450  30.4946780  38.3911630  59.3113550  21.6632950
  37.8228530  58.8631800  21.0368860  39.1000630  59.6706330  21.1298100
  46.7689250  52.1911990  36.1199720  47.0935020  51.4601650  36.6457700
  46.8045760  51.8725630  35.2180710  39.6177950  60.0602110  31.0208300
  39.9848080  59.5860680  31.7669640  39.4283010  60.9343680  31.3616640
  32.4818440  54.8045800  27.1501770  32.1965360  54.4401470  27.9880390
  32.4197300  54.0726260  26.5364910  37.4077320  59.1010750  33.3392510
  37.1034390  59.9802730  33.5642870  38.3623780  59.1610540  33.3749950
  46.6947090  62.3037100  29.7285750  47.4146210  62.7992390  29.3381860
  46.4928910  61.6254990  29.0839620  42.1557030  53.6975060  23.8715140
  41.3421640  53.1988230  23.7960450  41.9618980  54.5373310  23.4551490
  42.0765890  62.3746160  35.6154750  42.0103200  61.4541830  35.3612340
  41.4471030  62.4721600  36.3299390  44.8705420  58.0694710  22.1677300
  45.7585040  58.3811940  21.9928640  44.8410510  57.1966960  21.7757880
  35.9796510  62.9752120  27.5738170  36.4975180  62.1720380  27.5195060
  35.5280530  62.9131260  28.4155000  33.4641050  59.9413490  34.4863870
  33.1055990  60.6067340  35.0737210  33.1695610  59.1097040  34.8576490
  36.6654170  60.3997730  37.3703420  36.3654310  60.5454910  36.4731240
  37.4365410  59.8403020  37.2776810  47.1419690  59.3806550  21.6357160
  47.0583410  59.8120770  20.7853600  47.8613880  59.8404900  22.0683980
  48.2193830  61.8374070  34.7127130  47.4942020  62.4302850  34.5156520
  48.7469290  61.8297610  33.9140500  31.9749100  59.9404750  21.1098470
  32.8443950  60.2229550  21.3934390  31.4839420  60.7540620  20.9947280
  39.1383910  61.3277960  25.2306750  39.5946690  62.1383210  25.4566940
  38.7872120  61.0101100  26.0625240  35.0395690  51.6715610  25.7029270
  34.9110320  51.6633510  26.6514190  34.2157710  52.0098700  25.3520280
  32.0389620  53.4306730  35.1635970  31.3248140  53.6303650  35.7688580
  32.4584660  52.6546300  35.5350770  33.9595610  61.7578220  23.2380530
  33.3523560  62.4977120  23.2475830  34.4344960  61.8477580  22.4118730
  43.5328400  55.9229040  32.9137420  43.9009220  55.1024250  33.2416990
  42.6726600  55.9830930  33.3293070  46.8990430  54.8785980  23.7224980
  46.2703590  54.9831650  23.0083210  46.4042350  55.0982760  24.5118860
  38.8674460  57.1571930  25.1382860  38.1590610  57.6258270  25.5796470
  39.1518940  56.4993940  25.7728050  40.4930390  58.5768630  33.1375390
  40.9915640  59.0514450  33.8027240  40.6353340  57.6532150  33.3445420
  42.8989890  53.8822590  26.5778650  42.7757670  53.9008720  25.6288160
  43.8474450  53.9301530  26.6977050  37.0709480  55.4657010  22.5133570
  37.9200010  55.9027160  22.4473760  36.7040750  55.7777270  23.3405630
  47.6997250  54.7936590  33.9803780  47.1970850  55.5341990  34.3197590
  48.5153910  55.1820590  33.6640570  45.9919260  60.0369770  27.4265140
  45.0509400  60.0520000  27.6012830  46.3063330  59.2505730  27.8725440
  35.9700900  61.7189370  20.9869100  36.7364170  61.6070730  21.5494530
  36.0475590  61.0227340  20.3345870  34.6647660  59.1514440  21.6701990
  34.7451250  58.2041950  21.7819390  35.5567410  59.4821320  21.7762650
  32.1918460  60.9729360  36.9058160  32.6957480  60.3936640  37.4774390
  31.4525880  61.2569590  37.4434530  39.2456400  62.3800350  36.4393680
  38.4802070  62.9485350  36.3548350  39.4272360  62.0876560  35.5461910
  42.3344810  62.7563580  21.0646440  41.7854910  63.2032880  21.7089180
  42.9564070  62.2512830  21.5884110  34.2241540  59.1158950  37.8008230
  34.2646880  58.8172820  38.7093460  35.0787040  59.5166560  37.6415750
  38.0019930  61.7154500  22.9611740  38.4236350  61.5494370  23.8043130
  38.1270770  60.9054730  22.4666880  36.1647350  57.6951050  35.7682720
  35.6343810  57.2042000  35.1406060  36.8335420  58.1235250  35.2340650
  40.5147570  60.7392110  20.2088840  41.0353230  60.0241130  19.8429990
  41.1615970  61.3777980  20.5089350  45.0625410  62.1620510  35.5323910
  45.4766430  62.3165590  36.3814330  44.1276410  62.2875730  35.6949690
  45.5347580  59.5016670  37.5363060  46.1168350  58.7468990  37.4483540
  45.7109350  60.0324110  36.7594540  36.6519650  54.6613420  35.8480010
  36.5576520  54.0434170  35.1230880  36.0717040  55.3879710  35.6209920
  39.4181090  53.2186660  32.8807400  38.9698390  53.2410920  32.0352950
  38.7846290  52.8205680  33.4777700  39.8240640  62.1140990  33.5019840
  40.2428750  62.9573720  33.3296080  38.9049270  62.2513030  33.2726620
  42.1604540  59.8457170  34.8857680  42.2800750  59.2498310  35.6252520
  43.0198540  59.8826860  34.4658980  44.4992440  60.3994360  33.4620190
  43.9727660  60.9236980  32.8585330  44.8423780  61.0321750  34.0929920
  36.8978830  57.7887730  19.9069900  36.6967890  56.9255090  20.2683240
  36.7270880  57.7021090  18.9691500  38.9273310  56.3878520  36.1433500
  39.5173000  56.0794370  36.8311320  38.1093550  55.9158270  36.2993400
  43.7466740  56.0044330  36.3766520  43.0582260  55.3425870  36.3116510
  44.4672760  55.5582600  36.8214980  44.3767140  52.5995960  22.4356780
  44.6569430  51.7563860  22.7916200  43.6032870  52.8319070  22.9495530
  35.6961630  54.8888350  19.8947780  35.9987530  54.8955780  18.9866930
  36.4356220  54.5386210  20.3915440  38.9146560  53.8322970  20.8803980
  38.5668560  53.1546960  20.3006430  39.1159330  53.3712480  21.6947370
  48.7547860  61.8372690  23.0460690  49.5166770  62.4069340  23.1520380
  48.7702230  61.2699890  23.8169000  32.2552200  60.3610620  27.2768350
  31.6001040  60.0922260  26.6328050  33.0930150  60.2515100  26.8270330
  48.8067030  62.1307060  20.2033210  49.0815870  63.0385940  20.0752430
  48.6177770  62.0669590  21.1395200  45.2042640  55.1551910  21.4986840
  45.6227520  54.9682890  20.6583500  44.8978700  54.3030960  21.8089770
  48.7032370  60.0676050  25.1962640  48.3275970  59.3003980  24.7643930
  47.9735490  60.4498750  25.6837570  33.2928130  60.7463190  31.8171690
  33.6601170  60.6590590  32.6967710  32.7238950  59.9829740  31.7178550
  48.0931990  59.2147570  34.8302160  47.8618080  58.9860320  33.9300110
  48.3536540  60.1347120  34.7847050  32.8444130  57.6572280  35.7230110
  31.9500180  57.6239040  36.0623820  33.3841680  57.8559070  36.4881360
  46.5320060  54.4404000  37.6081860  47.4090240  54.4487400  37.9915860
  46.5440900  53.7034840  36.9974210  31.4690280  57.5709550  23.2193680
  30.5654360  57.8339750  23.0445340  31.9530900  57.8420720  22.4393640
  47.9783330  58.2933540  28.4969880  48.5020810  57.7996190  27.8660050
  48.5642750  58.4283900  29.2417450  48.1573050  58.3773410  32.0189430
  47.2075760  58.3436950  32.1334420  48.3386060  59.2873520  31.7839200
  34.0117490  56.6275090  21.1288060  34.7209190  56.2058310  20.6435340
  33.2957430  56.6950320  20.4971410  33.6591650  52.6814420  20.1690710
  34.3819780  53.2223360  20.4871930  33.9316170  52.4077840  19.2932250
  47.4683300  57.5506890  24.4362290  47.9642420  57.3177760  25.2211170
  47.2699370  56.7118730  24.0199930  33.3483840  51.9320610  30.0713330
  33.9960030  51.3817990  29.6308490  33.7685680  52.1863760  30.8929140
  48.8970460  56.1867840  26.9699970  48.7869740  56.0323880  27.9082240
  49.6578050  55.6588780  26.7275380  47.2436180  52.1261970  33.4282970
  47.8808400  52.7396110  33.7942160  47.3911070  52.1622630  32.4832200
  49.7860730  54.0175760  20.2106110  50.7110040  53.8856940  20.0024400
  49.7636520  54.0968580  21.1642560  49.8599220  54.7886420  22.8362820
  49.0650720  54.7231540  23.3655730  50.0642500  55.7237060  22.8248170
  33.1015840  52.0876280  32.8138650  32.7530660  52.5440100  33.5796830
  32.7703540  51.1933410  32.8961080  40.6140660  53.2788160  36.3358070
  40.5529550  53.8709990  37.0853480  41.5541040  53.1714120  36.1908330
  43.2515220  52.9358220  35.9750360  43.8655630  53.2537510  35.3131440
  43.7964780  52.4506810  36.5946220  33.7736480  51.6152480  36.0889420
  34.3219470  51.4340530  35.3255530  33.8391790  50.8246590  36.6245730
  43.9923260  51.4990360  32.3019650  43.1183100  51.8325470  32.0992580
  43.8834010  51.0263540  33.1271520  44.8995240  53.7061230  33.6861370
  44.5708600  52.8912990  33.3063100  45.8477540  53.6631040  33.5627060
  41.7398080  52.4160200  31.2412560  40.9569870  52.8905700  31.5209320
  41.4461010  51.5115030  31.1325740  46.2919150  53.1183300  29.2861650
  46.7327240  53.0628400  28.4383250  46.0226740  54.0341310  29.3571830
  48.1557720  52.7498540  27.2970470  48.0946120  51.8059760  27.1501490
  48.9349750  52.8578630  27.8423930  33.0838490  52.7207680  23.7626280
  33.8417850  52.8336560  23.1890310  32.6215660  53.5576880  23.7169710
  39.6252300  54.8346950  26.7528590  38.8126810  54.4603840  26.4124470
  40.1293940  54.0792030  27.0549780  44.1277280  51.4989400  27.9911660
  44.7306650  52.0709610  28.4660180  43.3870270  52.0628840  27.7685560
  47.2711880  51.9010960  23.2651940  47.4662510  52.7994410  23.5319370
  46.4841750  51.6698040  23.7584890  35.4563640  53.2471730  22.3028250
  35.9856400  52.4601530  22.1736200  36.0891960  53.9262920  22.5363780
  37.6501480  52.9846870  25.3573640  37.0204220  52.2834180  25.5243770
  37.1106620  53.7451000  25.1406800  37.7757040  52.2630850  37.7926130
  37.4941310  52.7664450  37.0286950  38.1576740  51.4652600  37.4268260
  44.3772500  51.6784430  38.3706600  44.2637950  51.9979040  39.2658120
  45.1942240  52.0796940  38.0743880  43.2830650  59.6976900   8.7341340
  43.2024700  58.7831510   8.4633050  42.8695070  60.1943970   8.0281050
  41.4148690  61.4755920  10.6150610  40.6390790  60.9956360  10.9049180
  42.0661620  60.7961570  10.4406770  35.4314520  61.7875730  11.4926370
  34.5999400  61.5324440  11.8922880  36.0395500  61.8586500  12.2284290
  33.8406470  56.7477620   5.2768760  32.9523170  57.0893590   5.1748640
  34.1247660  56.5477940   4.3849590  31.8039480  59.3483270  11.1608460
  32.3755590  58.5805470  11.1612100  31.8041020  59.6472030  10.2515070
  33.0464350  54.7567630  12.9477390  32.8667190  53.8593380  13.2280150
  32.6444430  55.3039500  13.6224340  41.8862850  56.9583490  10.8489700
  42.2627670  56.0855370  10.7363370  41.7882360  57.2942190   9.9580140
  36.0167860  55.3309120   6.3107140  36.1234610  56.2312850   6.6175900
  35.1060220  55.2827090   6.0201790  45.6686970  54.4533930   7.7818040
  46.4896590  53.9630500   7.8243520  45.7021050  55.0431590   8.5349880
  33.6651020  57.2528130  11.5559730  34.3461130  57.5166500  12.1747130
  33.3499070  56.4129000  11.8897740  37.8575590  58.2995490  10.6432320
  38.3653810  58.7976460  11.2837340  38.3888830  57.5230690  10.4671680
  49.9586520  56.4700680  14.3461670  49.2538690  56.8582390  13.8276780
  50.2244440  57.1650970  14.9482600  36.1411690  52.9394050  14.9095740
  36.1430130  53.4566440  14.1041640  35.3116000  52.4624230  14.8865670
  37.3914540  62.5789230  13.0869240  37.0583920  63.2058150  13.7290310
  37.5681220  63.1051110  12.3070910  45.9048450  56.3934310  10.5545580
  45.2004020  56.6819200  11.1348690  46.2660610  57.2034420  10.1945140
  35.8227020  54.6504010  12.9166190  36.1643830  55.4946060  12.6220060
  34.8842830  54.7987750  13.0331530  48.9735370  55.8389100  10.9454790
  48.0260280  55.8728080  11.0770220  49.2985360  56.6528050  11.3304150
  39.5054910  52.1386280   9.2410780  39.8129890  51.5833170   8.5246280
  38.5755610  52.2730740   9.0583770  44.4555410  62.7583410  12.8600850
  44.8724200  62.5443520  12.0254310  45.1795230  63.0156200  13.4309470
  41.8935670  60.2035110   5.9770900  40.9664950  60.1372490   6.2059370
  42.0460490  61.1415240   5.8626140  41.8804750  56.4752110   2.9738060
  40.9408420  56.6366070   3.0590520  42.1988010  57.1937790   2.4274050
  48.4017510  61.1570630  12.9517090  47.5736140  61.2263720  12.4767220
  48.9967990  61.7424940  12.4832920  45.9232960  61.7655410   6.4806150
  45.3045380  61.4274960   5.8332450  45.9057410  61.1215170   7.1885340
  45.3659520  57.9439950  13.8971960  44.9530700  58.7693660  14.1511950
  44.6335470  57.3584990  13.7048320  37.4992310  60.7299850   8.7590630
  37.0949310  60.0177100   8.2636530  37.5855430  60.3853090   9.6478670
  36.2120930  57.5043060  12.5389670  36.7635520  57.6138400  11.7642920
  36.7264440  57.8780660  13.2544900  44.0997660  61.0042220   3.4878900
  44.5390940  60.1664650   3.3416720  44.8126080  61.6371620   3.5743040
  35.8863660  61.0262420  16.1495010  35.7471430  61.8985220  16.5182410
  35.0045020  60.6835230  16.0042950  47.6814800  52.2585030   1.8019940
  47.3687460  52.3511860   2.7019010  48.4427270  52.8366060   1.7517370
  34.1996940  59.6244830   6.2597280  34.0794540  60.3506920   5.6478550
  33.8897830  58.8547740   5.7825190  31.8382310  62.7959970  12.0665920
  31.9162730  62.9308740  11.1221640  32.4523990  62.0875860  12.2594040
  48.8916090  56.9956530  17.7794080  48.2760360  57.5036200  17.2509540
  48.5712510  56.0954860  17.7220020  36.6660600  52.9679900   9.6420950
  36.2228750  53.7489440   9.3105470  37.2245590  53.2909790  10.3491890
  40.9530410  55.8348420  15.2456270  40.4909780  56.0431440  16.0576210
  40.5508520  55.0207770  14.9426940  45.9534920  57.0557370  16.3752930
  45.1028510  56.7563120  16.6962000  45.7936710  57.2999380  15.4636750
  43.0484630  58.5559120  18.4751720  43.3738040  57.7222870  18.1353950
  43.8364960  59.0787640  18.6230050  39.7819420  52.5890600   4.5226780
  39.1573600  52.5850470   5.2480090  39.6949540  51.7221560   4.1262750
  38.7036500  53.5127230  11.5010550  39.0008830  54.4190060  11.4202570
  39.2522060  53.0246010  10.8870120  36.4574820  58.0913470   7.3702200
  36.2315740  57.8750640   8.2748820  35.6767350  58.5241930   7.0248170
  43.6872580  58.0976840   5.9692850  43.0881470  58.8212640   5.7856470
  44.2352190  58.0353620   5.1869300  38.8974030  58.9899050  18.0362470
  38.8017630  58.0493780  17.8862870  39.7406010  59.2114120  17.6410540
  42.2937450  56.7340380   7.9996130  42.6867020  57.0512580   7.1864820
  42.6554300  55.8552260   8.1140650  34.0284570  55.4012720  16.1896250
  33.6347960  56.2487930  16.3969030  33.3402970  54.7639090  16.3804890
  40.6029620  55.4847690  19.2592990  39.9127940  55.2919890  19.8939080
  41.3461920  55.7682330  19.7917290  31.3301620  53.3241180  10.2226330
  31.0414670  53.8944040  10.9351310  32.0747380  52.8445630  10.5857560
  42.8792590  59.3246130  12.0946910  42.1473710  59.8332940  12.4437010
  42.4816930  58.5076110  11.7935690  39.3169980  56.0000330  10.4999400
  39.3206040  55.5590280   9.6503940  40.2121100  56.3217660  10.6071220
  35.1672360  55.8826820   9.4593610  34.8272410  56.3602050  10.2160660
  34.4049680  55.4291940   9.0994710  39.3790130  57.0012410   3.4906160
  39.5002950  56.9598890   4.4391980  38.9938640  57.8636560   3.3352890
  43.3418500  54.7779810  11.5069850  43.3591240  55.2288460  12.3511700
  43.0934080  53.8785450  11.7203290  38.3911630  59.3113550   2.8889460
  37.8228530  58.8631800   2.2625370  39.1000630  59.6706330   2.3554610
  46.7689250  52.1911990  17.3456230  47.0935020  51.4601650  17.8714210
  46.8045760  51.8725630  16.4437220  39.6177950  60.0602110  12.2464810
  39.9848080  59.5860680  12.9926150  39.4283010  60.9343680  12.5873150
  32.4818440  54.8045800   8.3758280  32.1965360  54.4401470   9.2136900
  32.4197300  54.0726260   7.7621420  37.4077320  59.1010750  14.5649020
  37.1034390  59.9802730  14.7899380  38.3623780  59.1610540  14.6006460
  46.6947090  62.3037100  10.9542260  47.4146210  62.7992390  10.5638370
  46.4928910  61.6254990  10.3096130  42.1557030  53.6975060   5.0971650
  41.3421640  53.1988230   5.0216960  41.9618980  54.5373310   4.6808000
  42.0765890  62.3746160  16.8411260  42.0103200  61.4541830  16.5868850
  41.4471030  62.4721600  17.5555900  44.8705420  58.0694710   3.3933810
  45.7585040  58.3811940   3.2185150  44.8410510  57.1966960   3.0014390
  35.9796510  62.9752120   8.7994680  36.4975180  62.1720380   8.7451570
  35.5280530  62.9131260   9.6411510  33.4641050  59.9413490  15.7120380
  33.1055990  60.6067340  16.2993720  33.1695610  59.1097040  16.0833000
  36.6654170  60.3997730  18.5959930  36.3654310  60.5454910  17.6987750
  37.4365410  59.8403020  18.5033320  47.1419690  59.3806550   2.8613670
  47.0583410  59.8120770   2.0110110  47.8613880  59.8404900   3.2940490
  48.2193830  61.8374070  15.9383640  47.4942020  62.4302850  15.7413030
  48.7469290  61.8297610  15.1397010  31.9749100  59.9404750   2.3354980
  32.8443950  60.2229550   2.6190900  31.4839420  60.7540620   2.2203790
  39.1383910  61.3277960   6.4563260  39.5946690  62.1383210   6.6823450
  38.7872120  61.0101100   7.2881750  35.0395690  51.6715610   6.9285780
  34.9110320  51.6633510   7.8770700  34.2157710  52.0098700   6.5776790
  32.0389620  53.4306730  16.3892480  31.3248140  53.6303650  16.9945090
  32.4584660  52.6546300  16.7607280  33.9595610  61.7578220   4.4637040
  33.3523560  62.4977120   4.4732340  34.4344960  61.8477580   3.6375240
  43.5328400  55.9229040  14.1393930  43.9009220  55.1024250  14.4673500
  42.6726600  55.9830930  14.5549580  46.8990430  54.8785980   4.9481490
  46.2703590  54.9831650   4.2339720  46.4042350  55.0982760   5.7375370
  38.8674460  57.1571930   6.3639370  38.1590610  57.6258270   6.8052980
  39.1518940  56.4993940   6.9984560  40.4930390  58.5768630  14.3631900
  40.9915640  59.0514450  15.0283750  40.6353340  57.6532150  14.5701930
  42.8989890  53.8822590   7.8035160  42.7757670  53.9008720   6.8544670
  43.8474450  53.9301530   7.9233560  37.0709480  55.4657010   3.7390080
  37.9200010  55.9027160   3.6730270  36.7040750  55.7777270   4.5662140
  47.6997250  54.7936590  15.2060290  47.1970850  55.5341990  15.5454100
  48.5153910  55.1820590  14.8897080  45.9919260  60.0369770   8.6521650
  45.0509400  60.0520000   8.8269340  46.3063330  59.2505730   9.0981950
  35.9700900  61.7189370   2.2125610  36.7364170  61.6070730   2.7751040
  36.0475590  61.0227340   1.5602380  34.6647660  59.1514440   2.8958500
  34.7451250  58.2041950   3.0075900  35.5567410  59.4821320   3.0019160
  32.1918460  60.9729360  18.1314670  32.6957480  60.3936640  18.7030900
  31.4525880  61.2569590  18.6691040  39.2456400  62.3800350  17.6650190
  38.4802070  62.9485350  17.5804860  39.4272360  62.0876560  16.7718420
  42.3344810  62.7563580   2.2902950  41.7854910  63.2032880   2.9345690
  42.9564070  62.2512830   2.8140620  34.2241540  59.1158950  19.0264740
  34.2646880  58.8172820  19.9349970  35.0787040  59.5166560  18.8672260
  38.0019930  61.7154500   4.1868250  38.4236350  61.5494370   5.0299640
  38.1270770  60.9054730   3.6923390  36.1647350  57.6951050  16.9939230
  35.6343810  57.2042000  16.3662570  36.8335420  58.1235250  16.4597160
  45.0625410  62.1620510  16.7580420  45.4766430  62.3165590  17.6070840
  44.1276410  62.2875730  16.9206200  45.5347580  59.5016670  18.7619570
  46.1168350  58.7468990  18.6740050  45.7109350  60.0324110  17.9851050
  36.6519650  54.6613420  17.0736520  36.5576520  54.0434170  16.3487390
  36.0717040  55.3879710  16.8466430  39.4181090  53.2186660  14.1063910
  38.9698390  53.2410920  13.2609460  38.7846290  52.8205680  14.7034210
  39.8240640  62.1140990  14.7276350  40.2428750  62.9573720  14.5552590
  38.9049270  62.2513030  14.4983130  42.1604540  59.8457170  16.1114190
  42.2800750  59.2498310  16.8509030  43.0198540  59.8826860  15.6915490
  44.4992440  60.3994360  14.6876700  43.9727660  60.9236980  14.0841840
  44.8423780  61.0321750  15.3186430  38.9273310  56.3878520  17.3690010
  39.5173000  56.0794370  18.0567830  38.1093550  55.9158270  17.5249910
  43.7466740  56.0044330  17.6023030  43.0582260  55.3425870  17.5373020
  44.4672760  55.5582600  18.0471490  44.3767140  52.5995960   3.6613290
  44.6569430  51.7563860   4.0172710  43.6032870  52.8319070   4.1752040
  38.9146560  53.8322970   2.1060490  38.5668560  53.1546960   1.5262940
  39.1159330  53.3712480   2.9203880  48.7547860  61.8372690   4.2717200
  49.5166770  62.4069340   4.3776890  48.7702230  61.2699890   5.0425510
  32.2552200  60.3610620   8.5024860  31.6001040  60.0922260   7.8584560
  33.0930150  60.2515100   8.0526840  45.2042640  55.1551910   2.7243350
  45.6227520  54.9682890   1.8840010  44.8978700  54.3030960   3.0346280
  48.7032370  60.0676050   6.4219150  48.3275970  59.3003980   5.9900440
  47.9735490  60.4498750   6.9094080  33.2928130  60.7463190  13.0428200
  33.6601170  60.6590590  13.9224220  32.7238950  59.9829740  12.9435060
  48.0931990  59.2147570  16.0558670  47.8618080  58.9860320  15.1556620
  48.3536540  60.1347120  16.0103560  32.8444130  57.6572280  16.9486620
  31.9500180  57.6239040  17.2880330  33.3841680  57.8559070  17.7137870
  46.5320060  54.4404000  18.8338370  47.4090240  54.4487400  19.2172370
  46.5440900  53.7034840  18.2230720  31.4690280  57.5709550   4.4450190
  30.5654360  57.8339750   4.2701850  31.9530900  57.8420720   3.6650150
  47.9783330  58.2933540   9.7226390  48.5020810  57.7996190   9.0916560
  48.5642750  58.4283900  10.4673960  48.1573050  58.3773410  13.2445940
  47.2075760  58.3436950  13.3590930  48.3386060  59.2873520  13.0095710
  34.0117490  56.6275090   2.3544570  34.7209190  56.2058310   1.8691850
  33.2957430  56.6950320   1.7227920  47.4683300  57.5506890   5.6618800
  47.9642420  57.3177760   6.4467680  47.2699370  56.7118730   5.2456440
  33.3483840  51.9320610  11.2969840  33.9960030  51.3817990  10.8565000
  33.7685680  52.1863760  12.1185650  48.8970460  56.1867840   8.1956480
  48.7869740  56.0323880   9.1338750  49.6578050  55.6588780   7.9531890
  47.2436180  52.1261970  14.6539480  47.8808400  52.7396110  15.0198670
  47.3911070  52.1622630  13.7088710  49.8599220  54.7886420   4.0619330
  49.0650720  54.7231540   4.5912240  50.0642500  55.7237060   4.0504680
  33.1015840  52.0876280  14.0395160  32.7530660  52.5440100  14.8053340
  32.7703540  51.1933410  14.1217590  40.6140660  53.2788160  17.5614580
  40.5529550  53.8709990  18.3109990  41.5541040  53.1714120  17.4164840
  43.2515220  52.9358220  17.2006870  43.8655630  53.2537510  16.5387950
  43.7964780  52.4506810  17.8202730  33.7736480  51.6152480  17.3145930
  34.3219470  51.4340530  16.5512040  33.8391790  50.8246590  17.8502240
  43.9923260  51.4990360  13.5276160  43.1183100  51.8325470  13.3249090
  43.8834010  51.0263540  14.3528030  44.8995240  53.7061230  14.9117880
  44.5708600  52.8912990  14.5319610  45.8477540  53.6631040  14.7883570
  41.7398080  52.4160200  12.4669070  40.9569870  52.8905700  12.7465830
  41.4461010  51.5115030  12.3582250  46.2919150  53.1183300  10.5118160
  46.7327240  53.0628400   9.6639760  46.0226740  54.0341310  10.5828340
  48.1557720  52.7498540   8.5226980  48.0946120  51.8059760   8.3758000
  48.9349750  52.8578630   9.0680440  33.0838490  52.7207680   4.9882790
  33.8417850  52.8336560   4.4146820  32.6215660  53.5576880   4.9426220
  39.6252300  54.8346950   7.9785100  38.8126810  54.4603840   7.6380980
  40.1293940  54.0792030   8.2806290  44.1277280  51.4989400   9.2168170
  44.7306650  52.0709610   9.6916690  43.3870270  52.0628840   8.9942070
  47.2711880  51.9010960   4.4908450  47.4662510  52.7994410   4.7575880
  46.4841750  51.6698040   4.9841400  35.4563640  53.2471730   3.5284760
  35.9856400  52.4601530   3.3992710  36.0891960  53.9262920   3.7620290
  37.6501480  52.9846870   6.5830150  37.0204220  52.2834180   6.7500280
  37.1106620  53.7451000   6.3663310  37.7757040  52.2630850  19.0182640
  37.4941310  52.7664450  18.2543460  38.1576740  51.4652600  18.6524770
  44.3772500  51.6784430  19.5963110  44.2637950  51.9979040  20.4914630
  45.1942240  52.0796940  19.3000390  43.2830650  40.9233410  46.2828320
  43.2024700  40.0088020  46.0120030  42.8695070  41.4200480  45.5768030
  41.4148690  42.7012430  48.1637590  40.6390790  42.2212870  48.4536160
  42.0661620  42.0218080  47.9893750  35.4314520  43.0132240  49.0413350
  34.5999400  42.7580950  49.4409860  36.0395500  43.0843010  49.7771270
  45.4356120  47.1072620  46.9436720  44.9737650  46.3359860  47.2723890
  46.2481670  47.1338690  47.4489170  35.4115780  47.0472330  49.2371370
  35.7143820  46.1570070  49.0581590  36.1559370  47.6042550  49.0093620
  31.8039480  40.5739780  48.7095440  32.3755590  39.8061980  48.7099080
  31.8041020  40.8728540  47.8002050  41.6619430  49.3930630  46.5640710
  41.0430870  49.8488130  45.9935150  42.5171210  49.5482090  46.1630410
  40.8557680  45.3769620  48.1707750  40.7865960  44.4359560  48.0096880
  41.6177540  45.4671030  48.7430320  33.0464350  35.9824140  50.4964370
  32.8667190  35.0849890  50.7767130  32.6444430  36.5296010  51.1711320
  41.8862850  38.1840000  48.3976680  42.2627670  37.3111880  48.2850350
  41.7882360  38.5198700  47.5067120  36.0167860  36.5565630  43.8594120
  36.1234610  37.4569360  44.1662880  35.1060220  36.5083600  43.5688770
  45.6686970  35.6790440  45.3305020  46.4896590  35.1887010  45.3730500
  45.7021050  36.2688100  46.0836860  33.6651020  38.4784640  49.1046710
  34.3461130  38.7423010  49.7234110  33.3499070  37.6385510  49.4384720
  37.8575590  39.5252000  48.1919300  38.3653810  40.0232970  48.8324320
  38.3888830  38.7487200  48.0158660  49.9586520  37.6957190  51.8948650
  49.2538690  38.0838900  51.3763760  50.2244440  38.3907480  52.4969580
  36.1411690  34.1650560  52.4582720  36.1430130  34.6822950  51.6528620
  35.3116000  33.6880740  52.4352650  42.5282780  44.2769870  43.9572620
  41.9100050  44.7419320  43.3935340  43.0406030  44.9697350  44.3742130
  37.3914540  43.8045740  50.6356220  37.0583920  44.4314660  51.2777290
  37.5681220  44.3307620  49.8557890  45.9048450  37.6190820  48.1032560
  45.2004020  37.9075710  48.6835670  46.2660610  38.4290930  47.7432120
  35.8227020  35.8760520  50.4653170  36.1643830  36.7202570  50.1707040
  34.8842830  36.0244260  50.5818510  36.6033640  45.7726540  52.4505400
  37.2207640  46.4477620  52.1689850  35.7426760  46.1814520  52.3592900
  31.8965980  44.9626400  41.3312250  31.5193960  45.4513500  40.5997150
  32.1539050  45.6351680  41.9618780  47.5211230  47.2365950  50.3660040
  46.8374750  47.9065060  50.3576710  48.0605520  47.4346600  49.6004900
  48.9735370  37.0645610  48.4941770  48.0260280  37.0984590  48.6257200
  49.2985360  37.8784560  48.8791130  39.5054910  33.3642790  46.7897760
  39.8129890  32.8089680  46.0733260  38.5755610  33.4987250  46.6070750
  45.0569970  49.0810080  49.0805220  45.0697130  48.6772370  48.2127480
  44.5045190  49.8557370  48.9766650  46.3515390  45.8026300  44.1695390
  46.2411720  44.8600630  44.2944810  46.3483640  46.1641940  45.0558150
  44.4555410  43.9839920  50.4087830  44.8724200  43.7700030  49.5741290
  45.1795230  44.2412710  50.9796450  41.8935670  41.4291620  43.5257880
  40.9664950  41.3629000  43.7546350  42.0460490  42.3671750  43.4113120
  41.8804750  37.7008620  40.5225040  40.9408420  37.8622580  40.6077500
  42.1988010  38.4194300  39.9761030  48.4017510  42.3827140  50.5004070
  47.5736140  42.4520230  50.0254200  48.9967990  42.9681450  50.0319900
  45.9232960  42.9911920  44.0293130  45.3045380  42.6531470  43.3819430
  45.9057410  42.3471680  44.7372320  45.3659520  39.1696460  51.4458940
  44.9530700  39.9950170  51.6998930  44.6335470  38.5841500  51.2535300
  37.4992310  41.9556360  46.3077610  37.0949310  41.2433610  45.8123510
  37.5855430  41.6109600  47.1965650  37.9674010  45.6423920  48.4716820
  37.6702300  45.0369390  47.7924600  38.9173830  45.6801230  48.3606180
  36.2120930  38.7299570  50.0876650  36.7635520  38.8394910  49.3129900
  36.7264440  39.1037170  50.8031880  46.0559620  49.2155790  52.1339920
  45.5790180  50.0227980  51.9412530  45.3721410  48.5634120  52.2866130
  37.0592440  45.3805610  55.1224620  36.1620970  45.6045580  55.3698020
  37.0845310  45.5040550  54.1736020  44.0997660  42.2298730  41.0365880
  44.5390940  41.3921160  40.8903700  44.8126080  42.8628130  41.1230020
  35.8863660  42.2518930  53.6981990  35.7471430  43.1241730  54.0669390
  35.0045020  41.9091740  53.5529930  42.2093040  47.1694800  45.0047120
  42.6488950  47.9119130  44.5902510  42.1479930  47.4121370  45.9286080
  37.6844010  48.1940630  55.9067140  37.6559440  48.5983580  55.0395570
  37.5208980  47.2650990  55.7438740  47.6814800  33.4841540  39.3506920
  47.3687460  33.5768370  40.2505990  48.4427270  34.0622570  39.3004350
  34.1996940  40.8501340  43.8084260  34.0794540  41.5763430  43.1965530
  33.8897830  40.0804250  43.3312170  31.8382310  44.0216480  49.6152900
  31.9162730  44.1565250  48.6708620  32.4523990  43.3132370  49.8081020
  33.0829940  45.7216670  46.0259080  32.6758020  45.8631260  45.1712680
  33.9742950  45.4376830  45.8230290  49.0392080  46.1680580  54.3631320
  49.1655140  45.9292460  53.4448500  49.0813460  45.3365120  54.8353400
  42.9008820  49.8708580  52.9326130  43.4153490  49.7816590  53.7348560
  42.0577900  50.2168280  53.2254040  44.8763220  50.1563920  42.3610130
  44.7164360  49.8666860  43.2591960  44.7109930  49.3804050  41.8255360
  37.3551600  49.9362450  44.1381750  37.1794080  49.0197990  43.9249550
  36.5007340  50.2949740  44.3779550  44.5789350  47.6651480  40.9208130
  43.8854510  47.6628770  40.2610410  45.3212210  47.2410800  40.4902300
  44.1439280  49.2914190  44.9956620  44.5996230  48.5103570  45.3095240
  44.4831800  50.0021010  45.5397800  48.8916090  38.2213040  55.3281060
  48.2760360  38.7292710  54.7996520  48.5712510  37.3211370  55.2707000
  31.8941830  45.0630650  52.1547360  32.0572870  44.5936010  51.3366730
  32.3594280  44.5554210  52.8196200  36.6660600  34.1936410  47.1907930
  36.2228750  34.9745950  46.8592450  37.2245590  34.5166300  47.8978870
  40.9530410  37.0604930  52.7943250  40.4909780  37.2687950  53.6063190
  40.5508520  36.2464280  52.4913920  45.9534920  38.2813880  53.9239910
  45.1028510  37.9819630  54.2448980  45.7936710  38.5255890  53.0123730
  43.0484630  39.7815630  56.0238700  43.3738040  38.9479380  55.6840930
  43.8364960  40.3044150  56.1717030  39.7819420  33.8147110  42.0713760
  39.1573600  33.8106980  42.7967070  39.6949540  32.9478070  41.6749730
  38.7036500  34.7383740  49.0497530  39.0008830  35.6446570  48.9689550
  39.2522060  34.2502520  48.4357100  36.4574820  39.3169980  44.9189180
  36.2315740  39.1007150  45.8235800  35.6767350  39.7498440  44.5735150
  43.6872580  39.3233350  43.5179830  43.0881470  40.0469150  43.3343450
  44.2352190  39.2610130  42.7356280  38.8974030  40.2155560  55.5849450
  38.8017630  39.2750290  55.4349850  39.7406010  40.4370630  55.1897520
  42.2937450  37.9596890  45.5483110  42.6867020  38.2769090  44.7351800
  42.6554300  37.0808770  45.6627630  34.0284570  36.6269230  53.7383230
  33.6347960  37.4744440  53.9456010  33.3402970  35.9895600  53.9291870
  31.3301620  34.5497690  47.7713310  31.0414670  35.1200550  48.4838290
  32.0747380  34.0702140  48.1344540  31.5171850  38.4917810  38.9816030
  31.4346520  39.4348570  39.1231020  31.1654910  38.3492720  38.1028380
  42.8792590  40.5502640  49.6433890  42.1473710  41.0589450  49.9923990
  42.4816930  39.7332620  49.3422670  39.3169980  37.2256840  48.0486380
  39.3206040  36.7846790  47.1990920  40.2121100  37.5474170  48.1558200
  35.1672360  37.1083330  47.0080590  34.8272410  37.5858560  47.7647640
  34.4049680  36.6548450  46.6481690  39.3790130  38.2268920  41.0393140
  39.5002950  38.1855400  41.9878960  38.9938640  39.0893070  40.8839870
  43.3418500  36.0036320  49.0556830  43.3591240  36.4544970  49.8998680
  43.0934080  35.1041960  49.2690270  38.3911630  40.5370060  40.4376440
  37.8228530  40.0888310  39.8112350  39.1000630  40.8962840  39.9041590
  46.7689250  33.4168500  54.8943210  47.0935020  32.6858160  55.4201190
  46.8045760  33.0982140  53.9924200  33.4680810  44.4382080  54.3143170
  33.0835600  43.7975750  54.9126130  33.7793000  45.1418200  54.8837900
  39.6177950  41.2858620  49.7951790  39.9848080  40.8117190  50.5413130
  39.4283010  42.1600190  50.1360130  32.4818440  36.0302310  45.9245260
  32.1965360  35.6657980  46.7623880  32.4197300  35.2982770  45.3108400
  37.4077320  40.3267260  52.1136000  37.1034390  41.2059240  52.3386360
  38.3623780  40.3867050  52.1493440  35.9359110  44.5328250  42.7102850
  35.1621370  43.9925870  42.5501570  36.6653740  44.0134860  42.3720610
  46.6947090  43.5293610  48.5029240  47.4146210  44.0248900  48.1125350
  46.4928910  42.8511500  47.8583110  42.1557030  34.9231570  42.6458630
  41.3421640  34.4244740  42.5703940  41.9618980  35.7629820  42.2294980
  42.0765890  43.6002670  54.3898240  42.0103200  42.6798340  54.1355830
  41.4471030  43.6978110  55.1042880  44.8705420  39.2951220  40.9420790
  45.7585040  39.6068450  40.7672130  44.8410510  38.4223470  40.5501370
  35.9796510  44.2008630  46.3481660  36.4975180  43.3976890  46.2938550
  35.5280530  44.1387770  47.1898490  40.8666010  45.4674910  41.6208960
  41.2081710  46.2117140  41.1252280  40.0378720  45.7806030  41.9833790
  33.4641050  41.1670000  53.2607360  33.1055990  41.8323850  53.8480700
  33.1695610  40.3353550  53.6319980  36.6654170  41.6254240  56.1446910
  36.3654310  41.7711420  55.2474730  37.4365410  41.0659530  56.0520300
  42.0082620  46.4223240  54.1402040  42.0227160  45.4904200  53.9220950
  41.3007720  46.5083000  54.7791810  47.1419690  40.6063060  40.4100650
  47.0583410  41.0377280  39.5597090  47.8613880  41.0661410  40.8427470
  48.2193830  43.0630580  53.4870620  47.4942020  43.6559360  53.2900010
  48.7469290  43.0554120  52.6883990  48.1706940  47.4605320  43.1382780
  47.5283100  46.8060940  43.4126500  47.7837600  47.8660410  42.3623450
  43.7493420  44.7890750  46.9854470  44.1017240  44.1918880  46.3255840
  42.8655750  44.4634980  47.1562720  39.8356700  45.5488440  44.3924880
  40.5227830  46.0957650  44.7732470  39.0489120  46.0929170  44.4274490
  31.9749100  41.1661260  39.8841960  32.8443950  41.4486060  40.1677880
  31.4839420  41.9797130  39.7690770  39.1383910  42.5534470  44.0050240
  39.5946690  43.3639720  44.2310430  38.7872120  42.2357610  44.8368730
  41.4416520  48.0640810  51.2342540  42.0858740  48.2700190  51.9115960
  41.8045960  47.3029210  50.7813390  35.0395690  32.8972120  44.4772760
  34.9110320  32.8890020  45.4257680  34.2157710  33.2355210  44.1263770
  42.7148600  46.0673160  49.9519990  43.3570830  45.3666320  50.0652160
  43.2397950  46.8471600  49.7716880  46.5604320  46.3521780  39.6759130
  46.3341900  45.6352220  40.2683770  46.1700520  46.1034220  38.8380880
  44.4886220  46.8668060  53.1556050  44.8242460  47.4534750  53.8333970
  43.5686560  46.7360770  53.3853840  32.3420350  50.3788640  40.4503590
  32.7017990  50.9777980  39.7960860  32.2012690  50.9248530  41.2238620
  32.0389620  34.6563240  53.9379460  31.3248140  34.8560160  54.5432070
  32.4584660  33.8802810  54.3094260  46.1420570  44.2693720  41.3373290
  45.8542270  44.7306410  42.1251170  46.9372740  43.8091490  41.6057510
  32.3262210  48.6443500  54.9245990  32.4353330  47.7038240  54.7841380
  31.6742770  48.9098250  54.2759720  38.3588970  47.7619840  41.2677260
  38.3499070  48.4949530  40.6521770  37.4387330  47.5151420  41.3604220
  33.9595610  42.9834730  42.0124020  33.3523560  43.7233630  42.0219320
  34.4344960  43.0734090  41.1862220  43.5328400  37.1485550  51.6880910
  43.9009220  36.3280760  52.0160480  42.6726600  37.2087440  52.1036560
  46.8990430  36.1042490  42.4968470  46.2703590  36.2088160  41.7826700
  46.4042350  36.3239270  43.2862350  41.3448570  47.8248080  39.9302450
  41.4460550  47.6212070  39.0004430  40.4450310  47.5706360  40.1350230
  38.8674460  38.3828440  43.9126350  38.1590610  38.8514780  44.3539960
  39.1518940  37.7250450  44.5471540  40.4930390  39.8025140  51.9118880
  40.9915640  40.2770960  52.5770730  40.6353340  38.8788660  52.1188910
  42.8989890  35.1079100  45.3522140  42.7757670  35.1265230  44.4031650
  43.8474450  35.1558040  45.4720540  39.9866680  50.3434400  44.6250120
  40.2408180  50.3055790  43.7029490  39.0379160  50.2167730  44.6178370
  37.0709480  36.6913520  41.2877060  37.9200010  37.1283670  41.2217250
  36.7040750  37.0033780  42.1149120  47.6997250  36.0193100  52.7547270
  47.1970850  36.7598500  53.0941080  48.5153910  36.4077100  52.4384060
  45.9919260  41.2626280  46.2008630  45.0509400  41.2776510  46.3756320
  46.3063330  40.4762240  46.6468930  35.9700900  42.9445880  39.7612590
  36.7364170  42.8327240  40.3238020  36.0475590  42.2483850  39.1089360
  34.6647660  40.3770950  40.4445480  34.7451250  39.4298460  40.5562880
  35.5567410  40.7077830  40.5506140  47.9944840  48.4335130  47.8762890
  48.1192260  49.2566300  48.3486700  48.8610400  48.2225860  47.5287040
  35.4662370  50.5266340  47.5480020  36.2024850  49.9781800  47.8188590
  35.8503290  51.3922350  47.4086010  32.3507850  46.5939910  43.4221530
  31.4247630  46.8361050  43.4126940  32.8164280  47.4214170  43.3006280
  38.5764680  49.6996650  39.3705590  39.3693290  49.9885480  38.9187380
  38.0569030  49.2688820  38.6918070  44.7385650  49.5472570  55.2950420
  45.6907400  49.4630590  55.2450660  44.5913870  50.2114280  55.9684210
  47.6294850  48.9266780  40.7942330  47.3436360  48.5131920  39.9796510
  47.4314400  49.8554490  40.6742850  32.1918460  42.1985870  55.6801650
  32.6957480  41.6193150  56.2517880  31.4525880  42.4826100  56.2178020
  39.0942080  44.9200060  39.2347940  38.9892720  44.3052410  39.9609320
  38.9266300  44.3965950  38.4510950  39.2456400  43.6056860  55.2137170
  38.4802070  44.1741860  55.1291840  39.4272360  43.3133070  54.3205400
  42.3344810  43.9820090  39.8389930  41.7854910  44.4289390  40.4832670
  42.9564070  43.4769340  40.3627600  46.3879750  45.3362190  55.7712190
  47.1289220  45.6737950  55.2679650  45.6252430  45.5054250  55.2181960
  38.0019930  42.9411010  41.7355230  38.4236350  42.7750880  42.5786620
  38.1270770  42.1311240  41.2410370  36.1647350  38.9207560  54.5426210
  35.6343810  38.4298510  53.9149550  36.8335420  39.3491760  54.0084140
  40.5147570  41.9648620  38.9832330  41.0353230  41.2497640  38.6173480
  41.1615970  42.6034490  39.2832840  45.0625410  43.3877020  54.3067400
  45.4766430  43.5422100  55.1557820  44.1276410  43.5132240  54.4693180
  45.5347580  40.7273180  56.3106550  46.1168350  39.9725500  56.2227030
  45.7109350  41.2580620  55.5338030  36.6519650  35.8869930  54.6223500
  36.5576520  35.2690680  53.8974370  36.0717040  36.6136220  54.3953410
  39.4181090  34.4443170  51.6550890  38.9698390  34.4667430  50.8096440
  38.7846290  34.0462190  52.2521190  39.8240640  43.3397500  52.2763330
  40.2428750  44.1830230  52.1039570  38.9049270  43.4769540  52.0470110
  42.1604540  41.0713680  53.6601170  42.2800750  40.4754820  54.3996010
  43.0198540  41.1083370  53.2402470  44.4992440  41.6250870  52.2363680
  43.9727660  42.1493490  51.6328820  44.8423780  42.2578260  52.8673410
  36.8978830  39.0144240  38.6813390  36.6967890  38.1511600  39.0426730
  36.7270880  38.9277600  37.7434990  37.6748060  49.6450510  53.3921060
  37.1369150  50.3696570  53.0729760  37.9282020  49.1680850  52.6018400
  38.9273310  37.6135030  54.9176990  39.5173000  37.3050880  55.6054810
  38.1093550  37.1414780  55.0736890  43.7466740  37.2300840  55.1510010
  43.0582260  36.5682380  55.0860000  44.4672760  36.7839110  55.5958470
  44.3767140  33.8252470  41.2100270  44.6569430  32.9820370  41.5659690
  43.6032870  34.0575580  41.7239020  35.6961630  36.1144860  38.6691270
  35.9987530  36.1212290  37.7610420  36.4356220  35.7642720  39.1658930
  40.5310270  50.8801720  53.6507710  40.4568970  51.7836860  53.9580080
  39.6289110  50.5613620  53.6229780  38.9146560  35.0579480  39.6547470
  38.5668560  34.3803470  39.0749920  39.1159330  34.5968990  40.4690860
  41.0795600  50.0460230  41.2734070  41.9746390  50.3845200  41.2952830
  41.1113230  49.3239640  40.6458350  34.7191760  45.4187280  39.5021070
  35.1566630  45.9616950  40.1578650  35.2039490  44.5934230  39.5117410
  31.9337560  48.2076310  46.9541330  32.2640570  47.3397370  46.7219970
  32.3628560  48.4134830  47.7846290  36.5299480  46.5385320  44.6143300
  36.2295020  46.4150290  45.5147210  36.4236970  45.6793910  44.2059030
  32.4227770  49.0746900  49.6922960  31.9858760  49.2547700  50.5247110
  32.9905450  49.8321520  49.5504680  48.0589950  48.5763900  53.9800270
  47.4591940  48.6356460  53.2364190  48.1883850  47.6368880  54.1097120
  49.2991400  46.3181720  39.3169980  48.4684360  46.3858370  39.7877210
  49.4763230  47.2085840  39.0136840  48.7547860  43.0629200  41.8204180
  49.5166770  43.6325850  41.9263870  48.7702230  42.4956400  42.5912490
  32.2552200  41.5867130  46.0511840  31.6001040  41.3178770  45.4071540
  33.0930150  41.4771610  45.6013820  49.7607830  43.9179300  46.6646110
  50.1316660  43.1346620  46.2582080  50.4009760  44.6068400  46.4863410
  46.7441590  45.3015880  52.0776430  45.9301430  45.7313040  52.3402220
  47.1515790  45.9134290  51.4645480  48.8067030  43.3563570  38.9776700
  49.0815870  44.2642450  38.8495920  48.6177770  43.2926100  39.9138690
  45.2042640  36.3808420  40.2730330  45.6227520  36.1939400  39.4326990
  44.8978700  35.5287470  40.5833260  48.7032370  41.2932560  43.9706130
  48.3275970  40.5260490  43.5387420  47.9735490  41.6755260  44.4581060
  33.2928130  41.9719700  50.5915180  33.6601170  41.8847100  51.4711200
  32.7238950  41.2086250  50.4922040  48.0931990  40.4404080  53.6045650
  47.8618080  40.2116830  52.7043600  48.3536540  41.3603630  53.5590540
  32.8444130  38.8828790  54.4973600  31.9500180  38.8495550  54.8367310
  33.3841680  39.0815580  55.2624850  46.5320060  35.6660510  56.3825350
  47.4090240  35.6743910  56.7659350  46.5440900  34.9291350  55.7717700
  31.4690280  38.7966060  41.9937170  30.5654360  39.0596260  41.8188830
  31.9530900  39.0677230  41.2137130  47.9783330  39.5190050  47.2713370
  48.5020810  39.0252700  46.6403540  48.5642750  39.6540410  48.0160940
  48.1573050  39.6029920  50.7932920  47.2075760  39.5693460  50.9077910
  48.3386060  40.5130030  50.5582690  34.0117490  37.8531600  39.9031550
  34.7209190  37.4314820  39.4178830  33.2957430  37.9206830  39.2714900
  33.6591650  33.9070930  38.9434200  34.3819780  34.4479870  39.2615420
  33.9316170  33.6334350  38.0675740  47.4683300  38.7763400  43.2105780
  47.9642420  38.5434270  43.9954660  47.2699370  37.9375240  42.7943420
  33.3483840  33.1577120  48.8456820  33.9960030  32.6074500  48.4051980
  33.7685680  33.4120270  49.6672630  48.8970460  37.4124350  45.7443460
  48.7869740  37.2580390  46.6825730  49.6578050  36.8845290  45.5018870
  47.2436180  33.3518480  52.2026460  47.8808400  33.9652620  52.5685650
  47.3911070  33.3879140  51.2575690  49.7860730  35.2432270  38.9849600
  50.7110040  35.1113450  38.7767890  49.7636520  35.3225090  39.9386050
  49.8599220  36.0142930  41.6106310  49.0650720  35.9488050  42.1399220
  50.0642500  36.9493570  41.5991660  46.8017640  50.0534480  45.6044700
  47.3976710  49.7319050  44.9279120  47.0595790  49.5806300  46.3957970
  33.1015840  33.3132790  51.5882140  32.7530660  33.7696610  52.3540320
  32.7703540  32.4189920  51.6704570  34.7080210  46.4852390  55.7535330
  34.6649840  46.1145300  56.6349790  34.8391220  47.4229960  55.8937150
  38.4086240  48.0411980  51.3545050  38.1677600  48.3086540  50.4675570
  39.3488880  48.2117710  51.4095910  40.6140660  34.5044670  55.1101560
  40.5529550  35.0966500  55.8596970  41.5541040  34.3970630  54.9651820
  43.2515220  34.1614730  54.7493850  43.8655630  34.4794020  54.0874930
  43.7964780  33.6763320  55.3689710  49.6690400  50.0606360  52.1555690
  49.1748680  50.4575230  51.4382820  49.0603690  49.4355570  52.5492970
  33.7736480  32.8408990  54.8632910  34.3219470  32.6597040  54.0999020
  33.8391790  32.0503100  55.3989220  34.5468240  49.4314640  52.8733110
  33.9528560  49.2999340  53.6123150  34.5392080  48.5952780  52.4075210
  43.9923260  32.7246870  51.0763140  43.1183100  33.0581980  50.8736070
  43.8834010  32.2520050  51.9015010  44.8995240  34.9317740  52.4604860
  44.5708600  34.1169500  52.0806590  45.8477540  34.8887550  52.3370550
  47.3529850  50.7029780  49.4342430  46.8932820  51.4545590  49.0600450
  46.7242310  49.9836250  49.3757230  34.1780470  46.7973020  51.8241150
  33.4514530  46.1778310  51.7567100  34.2389620  47.1913630  50.9539230
  37.7825570  49.0118020  48.6090560  38.2990590  48.4005380  48.0838820
  38.4322950  49.5146800  49.1001570  40.5221070  49.9026510  49.4359540
  40.8098880  49.6480810  48.5592550  41.0344290  49.3503870  50.0265110
  41.7398080  33.6416710  50.0156050  40.9569870  34.1162210  50.2952810
  41.4461010  32.7371540  49.9069230  46.2919150  34.3439810  48.0605140
  46.7327240  34.2884910  47.2126740  46.0226740  35.2597820  48.1315320
  48.1557720  33.9755050  46.0713960  48.0946120  33.0316270  45.9244980
  48.9349750  34.0835140  46.6167420  32.4610470  50.1147410  45.0337910
  32.2932510  49.4818090  45.7319800  31.5944980  50.3206810  44.6832100
  33.0838490  33.9464190  42.5369770  33.8417850  34.0593070  41.9633800
  32.6215660  34.7833390  42.4913200  39.6252300  36.0603460  45.5272080
  38.8126810  35.6860350  45.1867960  40.1293940  35.3048540  45.8293270
  44.1277280  32.7245910  46.7655150  44.7306650  33.2966120  47.2403670
  43.3870270  33.2885350  46.5429050  47.2711880  33.1267470  42.0395430
  47.4662510  34.0250920  42.3062860  46.4841750  32.8954550  42.5328380
  34.0673170  48.8080640  42.4788050  33.5420790  49.1888670  41.7750010
  33.9917750  49.4331410  43.1997760  35.4563640  34.4728240  41.0771740
  35.9856400  33.6858040  40.9479690  36.0891960  35.1519430  41.3107270
  37.6501480  34.2103380  44.1317130  37.0204220  33.5090690  44.2987260
  37.1106620  34.9707510  43.9150290  48.8238490  50.3668180  43.8001990
  48.9990680  49.6805920  43.1562910  48.1260060  50.8915230  43.4078660
  37.7757040  33.4887360  56.5669620  37.4941310  33.9920960  55.8030440
  38.1576740  32.6909110  56.2011750  36.6666140  50.7563020  41.3537300
  37.3984960  50.4722300  40.8061190  36.9259810  50.5176300  42.2436680
  35.8280930  46.8727750  41.3583630  35.1989810  47.3412850  41.9069460
  35.9428760  46.0276970  41.7929820  43.2830650  40.9233410  27.5084830
  43.2024700  40.0088020  27.2376540  42.8695070  41.4200480  26.8024540
  41.4148690  42.7012430  29.3894100  40.6390790  42.2212870  29.6792670
  42.0661620  42.0218080  29.2150260  35.4314520  43.0132240  30.2669860
  34.5999400  42.7580950  30.6666370  36.0395500  43.0843010  31.0027780
  45.4356120  47.1072620  28.1693230  44.9737650  46.3359860  28.4980400
  46.2481670  47.1338690  28.6745680  35.4115780  47.0472330  30.4627880
  35.7143820  46.1570070  30.2838100  36.1559370  47.6042550  30.2350130
  33.8406470  37.9734130  24.0512250  32.9523170  38.3150100  23.9492130
  34.1247660  37.7734450  23.1593080  41.6619430  49.3930630  27.7897220
  41.0430870  49.8488130  27.2191660  42.5171210  49.5482090  27.3886920
  41.8862850  38.1840000  29.6233190  42.2627670  37.3111880  29.5106860
  41.7882360  38.5198700  28.7323630  45.6686970  35.6790440  26.5561530
  46.4896590  35.1887010  26.5987010  45.7021050  36.2688100  27.3093370
  37.8575590  39.5252000  29.4175810  38.3653810  40.0232970  30.0580830
  38.3888830  38.7487200  29.2415170  49.9586520  37.6957190  33.1205160
  49.2538690  38.0838900  32.6020270  50.2244440  38.3907480  33.7226090
  36.1411690  34.1650560  33.6839230  36.1430130  34.6822950  32.8785130
  35.3116000  33.6880740  33.6609160  42.5282780  44.2769870  25.1829130
  41.9100050  44.7419320  24.6191850  43.0406030  44.9697350  25.5998640
  37.3914540  43.8045740  31.8612730  37.0583920  44.4314660  32.5033800
  37.5681220  44.3307620  31.0814400  45.9048450  37.6190820  29.3289070
  45.2004020  37.9075710  29.9092180  46.2660610  38.4290930  28.9688630
  36.6033640  45.7726540  33.6761910  37.2207640  46.4477620  33.3946360
  35.7426760  46.1814520  33.5849410  31.8965980  44.9626400  22.5568760
  31.5193960  45.4513500  21.8253660  32.1539050  45.6351680  23.1875290
  47.5211230  47.2365950  31.5916550  46.8374750  47.9065060  31.5833220
  48.0605520  47.4346600  30.8261410  48.9735370  37.0645610  29.7198280
  48.0260280  37.0984590  29.8513710  49.2985360  37.8784560  30.1047640
  45.0569970  49.0810080  30.3061730  45.0697130  48.6772370  29.4383990
  44.5045190  49.8557370  30.2023160  46.3515390  45.8026300  25.3951900
  46.2411720  44.8600630  25.5201320  46.3483640  46.1641940  26.2814660
  44.4555410  43.9839920  31.6344340  44.8724200  43.7700030  30.7997800
  45.1795230  44.2412710  32.2052960  41.8935670  41.4291620  24.7514390
  40.9664950  41.3629000  24.9802860  42.0460490  42.3671750  24.6369630
  41.8804750  37.7008620  21.7481550  40.9408420  37.8622580  21.8334010
  42.1988010  38.4194300  21.2017540  48.4017510  42.3827140  31.7260580
  47.5736140  42.4520230  31.2510710  48.9967990  42.9681450  31.2576410
  45.9232960  42.9911920  25.2549640  45.3045380  42.6531470  24.6075940
  45.9057410  42.3471680  25.9628830  37.4992310  41.9556360  27.5334120
  37.0949310  41.2433610  27.0380020  37.5855430  41.6109600  28.4222160
  37.9674010  45.6423920  29.6973330  37.6702300  45.0369390  29.0181110
  38.9173830  45.6801230  29.5862690  36.2120930  38.7299570  31.3133160
  36.7635520  38.8394910  30.5386410  36.7264440  39.1037170  32.0288390
  46.0559620  49.2155790  33.3596430  45.5790180  50.0227980  33.1669040
  45.3721410  48.5634120  33.5122640  37.0592440  45.3805610  36.3481130
  36.1620970  45.6045580  36.5954530  37.0845310  45.5040550  35.3992530
  35.8863660  42.2518930  34.9238500  35.7471430  43.1241730  35.2925900
  35.0045020  41.9091740  34.7786440  42.2093040  47.1694800  26.2303630
  42.6488950  47.9119130  25.8159020  42.1479930  47.4121370  27.1542590
  37.6844010  48.1940630  37.1323650  37.6559440  48.5983580  36.2652080
  37.5208980  47.2650990  36.9695250  47.6814800  33.4841540  20.5763430
  47.3687460  33.5768370  21.4762500  48.4427270  34.0622570  20.5260860
  34.1996940  40.8501340  25.0340770  34.0794540  41.5763430  24.4222040
  33.8897830  40.0804250  24.5568680  49.6358830  48.9767730  38.4287820
  50.1118550  49.4550620  39.1076900  50.2565990  48.9085220  37.7033320
  31.8382310  44.0216480  30.8409410  31.9162730  44.1565250  29.8965130
  32.4523990  43.3132370  31.0337530  33.0829940  45.7216670  27.2515590
  32.6758020  45.8631260  26.3969190  33.9742950  45.4376830  27.0486800
  49.0392080  46.1680580  35.5887830  49.1655140  45.9292460  34.6705010
  49.0813460  45.3365120  36.0609910  42.9008820  49.8708580  34.1582640
  43.4153490  49.7816590  34.9605070  42.0577900  50.2168280  34.4510550
  44.8763220  50.1563920  23.5866640  44.7164360  49.8666860  24.4848470
  44.7109930  49.3804050  23.0511870  37.3551600  49.9362450  25.3638260
  37.1794080  49.0197990  25.1506060  36.5007340  50.2949740  25.6036060
  44.5789350  47.6651480  22.1464640  43.8854510  47.6628770  21.4866920
  45.3212210  47.2410800  21.7158810  44.1439280  49.2914190  26.2213130
  44.5996230  48.5103570  26.5351750  44.4831800  50.0021010  26.7654310
  48.8916090  38.2213040  36.5537570  48.2760360  38.7292710  36.0253030
  48.5712510  37.3211370  36.4963510  31.8941830  45.0630650  33.3803870
  32.0572870  44.5936010  32.5623240  32.3594280  44.5554210  34.0452710
  40.9530410  37.0604930  34.0199760  40.4909780  37.2687950  34.8319700
  40.5508520  36.2464280  33.7170430  45.9534920  38.2813880  35.1496420
  45.1028510  37.9819630  35.4705490  45.7936710  38.5255890  34.2380240
  43.0484630  39.7815630  37.2495210  43.3738040  38.9479380  36.9097440
  43.8364960  40.3044150  37.3973540  43.6872580  39.3233350  24.7436340
  43.0881470  40.0469150  24.5599960  44.2352190  39.2610130  23.9612790
  38.8974030  40.2155560  36.8105960  38.8017630  39.2750290  36.6606360
  39.7406010  40.4370630  36.4154030  42.2937450  37.9596890  26.7739620
  42.6867020  38.2769090  25.9608310  42.6554300  37.0808770  26.8884140
  34.0284570  36.6269230  34.9639740  33.6347960  37.4744440  35.1712520
  33.3402970  35.9895600  35.1548380  40.6029620  36.7104200  38.0336480
  39.9127940  36.5176400  38.6682570  41.3461920  36.9938840  38.5660780
  31.5171850  38.4917810  20.2072540  31.4346520  39.4348570  20.3487530
  31.1654910  38.3492720  19.3284890  42.8792590  40.5502640  30.8690400
  42.1473710  41.0589450  31.2180500  42.4816930  39.7332620  30.5679180
  39.3790130  38.2268920  22.2649650  39.5002950  38.1855400  23.2135470
  38.9938640  39.0893070  22.1096380  43.3418500  36.0036320  30.2813340
  43.3591240  36.4544970  31.1255190  43.0934080  35.1041960  30.4946780
  38.3911630  40.5370060  21.6632950  37.8228530  40.0888310  21.0368860
  39.1000630  40.8962840  21.1298100  46.7689250  33.4168500  36.1199720
  47.0935020  32.6858160  36.6457700  46.8045760  33.0982140  35.2180710
  33.4680810  44.4382080  35.5399680  33.0835600  43.7975750  36.1382640
  33.7793000  45.1418200  36.1094410  39.6177950  41.2858620  31.0208300
  39.9848080  40.8117190  31.7669640  39.4283010  42.1600190  31.3616640
  37.4077320  40.3267260  33.3392510  37.1034390  41.2059240  33.5642870
  38.3623780  40.3867050  33.3749950  35.9359110  44.5328250  23.9359360
  35.1621370  43.9925870  23.7758080  36.6653740  44.0134860  23.5977120
  46.6947090  43.5293610  29.7285750  47.4146210  44.0248900  29.3381860
  46.4928910  42.8511500  29.0839620  42.1557030  34.9231570  23.8715140
  41.3421640  34.4244740  23.7960450  41.9618980  35.7629820  23.4551490
  42.0765890  43.6002670  35.6154750  42.0103200  42.6798340  35.3612340
  41.4471030  43.6978110  36.3299390  44.8705420  39.2951220  22.1677300
  45.7585040  39.6068450  21.9928640  44.8410510  38.4223470  21.7757880
  35.9796510  44.2008630  27.5738170  36.4975180  43.3976890  27.5195060
  35.5280530  44.1387770  28.4155000  40.8666010  45.4674910  22.8465470
  41.2081710  46.2117140  22.3508790  40.0378720  45.7806030  23.2090300
  36.6654170  41.6254240  37.3703420  36.3654310  41.7711420  36.4731240
  37.4365410  41.0659530  37.2776810  42.0082620  46.4223240  35.3658550
  42.0227160  45.4904200  35.1477460  41.3007720  46.5083000  36.0048320
  47.1419690  40.6063060  21.6357160  47.0583410  41.0377280  20.7853600
  47.8613880  41.0661410  22.0683980  48.2193830  43.0630580  34.7127130
  47.4942020  43.6559360  34.5156520  48.7469290  43.0554120  33.9140500
  48.1706940  47.4605320  24.3639290  47.5283100  46.8060940  24.6383010
  47.7837600  47.8660410  23.5879960  43.7493420  44.7890750  28.2110980
  44.1017240  44.1918880  27.5512350  42.8655750  44.4634980  28.3819230
  39.8356700  45.5488440  25.6181390  40.5227830  46.0957650  25.9988980
  39.0489120  46.0929170  25.6531000  31.9749100  41.1661260  21.1098470
  32.8443950  41.4486060  21.3934390  31.4839420  41.9797130  20.9947280
  39.1383910  42.5534470  25.2306750  39.5946690  43.3639720  25.4566940
  38.7872120  42.2357610  26.0625240  41.4416520  48.0640810  32.4599050
  42.0858740  48.2700190  33.1372470  41.8045960  47.3029210  32.0069900
  42.7148600  46.0673160  31.1776500  43.3570830  45.3666320  31.2908670
  43.2397950  46.8471600  30.9973390  46.5604320  46.3521780  20.9015640
  46.3341900  45.6352220  21.4940280  46.1700520  46.1034220  20.0637390
  44.4886220  46.8668060  34.3812560  44.8242460  47.4534750  35.0590480
  43.5686560  46.7360770  34.6110350  32.3420350  50.3788640  21.6760100
  32.7017990  50.9777980  21.0217370  32.2012690  50.9248530  22.4495130
  32.0389620  34.6563240  35.1635970  31.3248140  34.8560160  35.7688580
  32.4584660  33.8802810  35.5350770  46.1420570  44.2693720  22.5629800
  45.8542270  44.7306410  23.3507680  46.9372740  43.8091490  22.8314020
  32.3262210  48.6443500  36.1502500  32.4353330  47.7038240  36.0097890
  31.6742770  48.9098250  35.5016230  40.3174800  46.9159390  37.5500620
  39.9971670  46.1968630  38.0946310  39.6433160  47.5914460  37.6236680
  38.3588970  47.7619840  22.4933770  38.3499070  48.4949530  21.8778280
  37.4387330  47.5151420  22.5860730  33.9595610  42.9834730  23.2380530
  33.3523560  43.7233630  23.2475830  34.4344960  43.0734090  22.4118730
  43.5328400  37.1485550  32.9137420  43.9009220  36.3280760  33.2416990
  42.6726600  37.2087440  33.3293070  46.8990430  36.1042490  23.7224980
  46.2703590  36.2088160  23.0083210  46.4042350  36.3239270  24.5118860
  41.3448570  47.8248080  21.1558960  41.4460550  47.6212070  20.2260940
  40.4450310  47.5706360  21.3606740  40.4930390  39.8025140  33.1375390
  40.9915640  40.2770960  33.8027240  40.6353340  38.8788660  33.3445420
  42.8989890  35.1079100  26.5778650  42.7757670  35.1265230  25.6288160
  43.8474450  35.1558040  26.6977050  39.9866680  50.3434400  25.8506630
  40.2408180  50.3055790  24.9286000  39.0379160  50.2167730  25.8434880
  47.6997250  36.0193100  33.9803780  47.1970850  36.7598500  34.3197590
  48.5153910  36.4077100  33.6640570  45.9919260  41.2626280  27.4265140
  45.0509400  41.2776510  27.6012830  46.3063330  40.4762240  27.8725440
  35.9700900  42.9445880  20.9869100  36.7364170  42.8327240  21.5494530
  36.0475590  42.2483850  20.3345870  34.6647660  40.3770950  21.6701990
  34.7451250  39.4298460  21.7819390  35.5567410  40.7077830  21.7762650
  47.9944840  48.4335130  29.1019400  48.1192260  49.2566300  29.5743210
  48.8610400  48.2225860  28.7543550  35.4662370  50.5266340  28.7736530
  36.2024850  49.9781800  29.0445100  35.8503290  51.3922350  28.6342520
  32.3507850  46.5939910  24.6478040  31.4247630  46.8361050  24.6383450
  32.8164280  47.4214170  24.5262790  34.4720650  49.7112410  37.9622110
  35.2733380  50.0324460  38.3757510  33.9572470  49.3507990  38.6842020
  38.5764680  49.6996650  20.5962100  39.3693290  49.9885480  20.1443890
  38.0569030  49.2688820  19.9174580  43.3085280  45.8192280  37.9097520
  42.7023440  45.8423880  37.1693270  43.0039390  45.0875320  38.4464770
  44.7385650  49.5472570  36.5206930  45.6907400  49.4630590  36.4707170
  44.5913870  50.2114280  37.1940720  47.6294850  48.9266780  22.0198840
  47.3436360  48.5131920  21.2053020  47.4314400  49.8554490  21.8999360
  32.1918460  42.1985870  36.9058160  32.6957480  41.6193150  37.4774390
  31.4525880  42.4826100  37.4434530  39.0942080  44.9200060  20.4604450
  38.9892720  44.3052410  21.1865830  38.9266300  44.3965950  19.6767460
  39.2456400  43.6056860  36.4393680  38.4802070  44.1741860  36.3548350
  39.4272360  43.3133070  35.5461910  42.3344810  43.9820090  21.0646440
  41.7854910  44.4289390  21.7089180  42.9564070  43.4769340  21.5884110
  46.3879750  45.3362190  36.9968700  47.1289220  45.6737950  36.4936160
  45.6252430  45.5054250  36.4438470  34.2241540  40.3415460  37.8008230
  34.2646880  40.0429330  38.7093460  35.0787040  40.7423070  37.6415750
  38.0019930  42.9411010  22.9611740  38.4236350  42.7750880  23.8043130
  38.1270770  42.1311240  22.4666880  36.1647350  38.9207560  35.7682720
  35.6343810  38.4298510  35.1406060  36.8335420  39.3491760  35.2340650
  40.5147570  41.9648620  20.2088840  41.0353230  41.2497640  19.8429990
  41.1615970  42.6034490  20.5089350  45.0625410  43.3877020  35.5323910
  45.4766430  43.5422100  36.3814330  44.1276410  43.5132240  35.6949690
  45.5347580  40.7273180  37.5363060  46.1168350  39.9725500  37.4483540
  45.7109350  41.2580620  36.7594540  36.6519650  35.8869930  35.8480010
  36.5576520  35.2690680  35.1230880  36.0717040  36.6136220  35.6209920
  39.4181090  34.4443170  32.8807400  38.9698390  34.4667430  32.0352950
  38.7846290  34.0462190  33.4777700  39.8240640  43.3397500  33.5019840
  40.2428750  44.1830230  33.3296080  38.9049270  43.4769540  33.2726620
  42.1604540  41.0713680  34.8857680  42.2800750  40.4754820  35.6252520
  43.0198540  41.1083370  34.4658980  44.4992440  41.6250870  33.4620190
  43.9727660  42.1493490  32.8585330  44.8423780  42.2578260  34.0929920
  36.8978830  39.0144240  19.9069900  36.6967890  38.1511600  20.2683240
  36.7270880  38.9277600  18.9691500  37.6748060  49.6450510  34.6177570
  37.1369150  50.3696570  34.2986270  37.9282020  49.1680850  33.8274910
  38.9273310  37.6135030  36.1433500  39.5173000  37.3050880  36.8311320
  38.1093550  37.1414780  36.2993400  43.7466740  37.2300840  36.3766520
  43.0582260  36.5682380  36.3116510  44.4672760  36.7839110  36.8214980
  44.3767140  33.8252470  22.4356780  44.6569430  32.9820370  22.7916200
  43.6032870  34.0575580  22.9495530  35.6961630  36.1144860  19.8947780
  35.9987530  36.1212290  18.9866930  36.4356220  35.7642720  20.3915440
  40.5310270  50.8801720  34.8764220  40.4568970  51.7836860  35.1836590
  39.6289110  50.5613620  34.8486290  38.9146560  35.0579480  20.8803980
  38.5668560  34.3803470  20.3006430  39.1159330  34.5968990  21.6947370
  41.0795600  50.0460230  22.4990580  41.9746390  50.3845200  22.5209340
  41.1113230  49.3239640  21.8714860  34.7191760  45.4187280  20.7277580
  35.1566630  45.9616950  21.3835160  35.2039490  44.5934230  20.7373920
  31.9337560  48.2076310  28.1797840  32.2640570  47.3397370  27.9476480
  32.3628560  48.4134830  29.0102800  36.5299480  46.5385320  25.8399810
  36.2295020  46.4150290  26.7403720  36.4236970  45.6793910  25.4315540
  32.4227770  49.0746900  30.9179470  31.9858760  49.2547700  31.7503620
  32.9905450  49.8321520  30.7761190  48.0589950  48.5763900  35.2056780
  47.4591940  48.6356460  34.4620700  48.1883850  47.6368880  35.3353630
  49.2991400  46.3181720  20.5426490  48.4684360  46.3858370  21.0133720
  49.4763230  47.2085840  20.2393350  48.7547860  43.0629200  23.0460690
  49.5166770  43.6325850  23.1520380  48.7702230  42.4956400  23.8169000
  49.7607830  43.9179300  27.8902620  50.1316660  43.1346620  27.4838590
  50.4009760  44.6068400  27.7119920  46.7441590  45.3015880  33.3032940
  45.9301430  45.7313040  33.5658730  47.1515790  45.9134290  32.6901990
  48.8067030  43.3563570  20.2033210  49.0815870  44.2642450  20.0752430
  48.6177770  43.2926100  21.1395200  45.2042640  36.3808420  21.4986840
  45.6227520  36.1939400  20.6583500  44.8978700  35.5287470  21.8089770
  48.7032370  41.2932560  25.1962640  48.3275970  40.5260490  24.7643930
  47.9735490  41.6755260  25.6837570  33.2928130  41.9719700  31.8171690
  33.6601170  41.8847100  32.6967710  32.7238950  41.2086250  31.7178550
  48.0931990  40.4404080  34.8302160  47.8618080  40.2116830  33.9300110
  48.3536540  41.3603630  34.7847050  32.8444130  38.8828790  35.7230110
  31.9500180  38.8495550  36.0623820  33.3841680  39.0815580  36.4881360
  46.5320060  35.6660510  37.6081860  47.4090240  35.6743910  37.9915860
  46.5440900  34.9291350  36.9974210  47.9783330  39.5190050  28.4969880
  48.5020810  39.0252700  27.8660050  48.5642750  39.6540410  29.2417450
  48.1573050  39.6029920  32.0189430  47.2075760  39.5693460  32.1334420
  48.3386060  40.5130030  31.7839200  34.0117490  37.8531600  21.1288060
  34.7209190  37.4314820  20.6435340  33.2957430  37.9206830  20.4971410
  33.6591650  33.9070930  20.1690710  34.3819780  34.4479870  20.4871930
  33.9316170  33.6334350  19.2932250  47.4683300  38.7763400  24.4362290
  47.9642420  38.5434270  25.2211170  47.2699370  37.9375240  24.0199930
  47.2436180  33.3518480  33.4282970  47.8808400  33.9652620  33.7942160
  47.3911070  33.3879140  32.4832200  49.7860730  35.2432270  20.2106110
  50.7110040  35.1113450  20.0024400  49.7636520  35.3225090  21.1642560
  49.8599220  36.0142930  22.8362820  49.0650720  35.9488050  23.3655730
  50.0642500  36.9493570  22.8248170  46.8017640  50.0534480  26.8301210
  47.3976710  49.7319050  26.1535630  47.0595790  49.5806300  27.6214480
  34.7080210  46.4852390  36.9791840  34.6649840  46.1145300  37.8606300
  34.8391220  47.4229960  37.1193660  38.4086240  48.0411980  32.5801560
  38.1677600  48.3086540  31.6932080  39.3488880  48.2117710  32.6352420
  40.6140660  34.5044670  36.3358070  40.5529550  35.0966500  37.0853480
  41.5541040  34.3970630  36.1908330  43.2515220  34.1614730  35.9750360
  43.8655630  34.4794020  35.3131440  43.7964780  33.6763320  36.5946220
  49.6690400  50.0606360  33.3812200  49.1748680  50.4575230  32.6639330
  49.0603690  49.4355570  33.7749480  33.7736480  32.8408990  36.0889420
  34.3219470  32.6597040  35.3255530  33.8391790  32.0503100  36.6245730
  34.5468240  49.4314640  34.0989620  33.9528560  49.2999340  34.8379660
  34.5392080  48.5952780  33.6331720  43.9923260  32.7246870  32.3019650
  43.1183100  33.0581980  32.0992580  43.8834010  32.2520050  33.1271520
  44.8995240  34.9317740  33.6861370  44.5708600  34.1169500  33.3063100
  45.8477540  34.8887550  33.5627060  47.3529850  50.7029780  30.6598940
  46.8932820  51.4545590  30.2856960  46.7242310  49.9836250  30.6013740
  34.1780470  46.7973020  33.0497660  33.4514530  46.1778310  32.9823610
  34.2389620  47.1913630  32.1795740  37.7825570  49.0118020  29.8347070
  38.2990590  48.4005380  29.3095330  38.4322950  49.5146800  30.3258080
  40.5221070  49.9026510  30.6616050  40.8098880  49.6480810  29.7849060
  41.0344290  49.3503870  31.2521620  41.7398080  33.6416710  31.2412560
  40.9569870  34.1162210  31.5209320  41.4461010  32.7371540  31.1325740
  46.2919150  34.3439810  29.2861650  46.7327240  34.2884910  28.4383250
  46.0226740  35.2597820  29.3571830  48.1557720  33.9755050  27.2970470
  48.0946120  33.0316270  27.1501490  48.9349750  34.0835140  27.8423930
  32.4610470  50.1147410  26.2594420  32.2932510  49.4818090  26.9576310
  31.5944980  50.3206810  25.9088610  44.1277280  32.7245910  27.9911660
  44.7306650  33.2966120  28.4660180  43.3870270  33.2885350  27.7685560
  47.2711880  33.1267470  23.2651940  47.4662510  34.0250920  23.5319370
  46.4841750  32.8954550  23.7584890  34.0673170  48.8080640  23.7044560
  33.5420790  49.1888670  23.0006520  33.9917750  49.4331410  24.4254270
  35.4563640  34.4728240  22.3028250  35.9856400  33.6858040  22.1736200
  36.0891960  35.1519430  22.5363780  40.5893430  50.8242610  38.0284250
  41.5160740  50.5886880  38.0720210  40.5743860  51.6514610  37.5470280
  48.8238490  50.3668180  25.0258500  48.9990680  49.6805920  24.3819420
  48.1260060  50.8915230  24.6335170  37.7757040  33.4887360  37.7926130
  37.4941310  33.9920960  37.0286950  38.1576740  32.6909110  37.4268260
  36.6666140  50.7563020  22.5793810  37.3984960  50.4722300  22.0317700
  36.9259810  50.5176300  23.4693190  35.8280930  46.8727750  22.5840140
  35.1989810  47.3412850  23.1325970  35.9428760  46.0276970  23.0186330
  44.3772500  32.9040940  38.3706600  44.2637950  33.2235550  39.2658120
  45.1942240  33.3053450  38.0743880  47.1570990  50.0512470  37.8525290
  47.9496310  49.5561700  37.6451250  47.4504140  50.7302610  38.4600900
  43.2830650  40.9233410   8.7341340  43.2024700  40.0088020   8.4633050
  42.8695070  41.4200480   8.0281050  41.4148690  42.7012430  10.6150610
  40.6390790  42.2212870  10.9049180  42.0661620  42.0218080  10.4406770
  35.4314520  43.0132240  11.4926370  34.5999400  42.7580950  11.8922880
  36.0395500  43.0843010  12.2284290  45.4356120  47.1072620   9.3949740
  44.9737650  46.3359860   9.7236910  46.2481670  47.1338690   9.9002190
  35.4115780  47.0472330  11.6884390  35.7143820  46.1570070  11.5094610
  36.1559370  47.6042550  11.4606640  33.8406470  37.9734130   5.2768760
  32.9523170  38.3150100   5.1748640  34.1247660  37.7734450   4.3849590
  31.8039480  40.5739780  11.1608460  32.3755590  39.8061980  11.1612100
  31.8041020  40.8728540  10.2515070  41.6619430  49.3930630   9.0153730
  41.0430870  49.8488130   8.4448170  42.5171210  49.5482090   8.6143430
  40.8557680  45.3769620  10.6220770  40.7865960  44.4359560  10.4609900
  41.6177540  45.4671030  11.1943340  33.0464350  35.9824140  12.9477390
  32.8667190  35.0849890  13.2280150  32.6444430  36.5296010  13.6224340
  41.8862850  38.1840000  10.8489700  42.2627670  37.3111880  10.7363370
  41.7882360  38.5198700   9.9580140  36.0167860  36.5565630   6.3107140
  36.1234610  37.4569360   6.6175900  35.1060220  36.5083600   6.0201790
  45.6686970  35.6790440   7.7818040  46.4896590  35.1887010   7.8243520
  45.7021050  36.2688100   8.5349880  33.6651020  38.4784640  11.5559730
  34.3461130  38.7423010  12.1747130  33.3499070  37.6385510  11.8897740
  37.8575590  39.5252000  10.6432320  38.3653810  40.0232970  11.2837340
  38.3888830  38.7487200  10.4671680  49.9586520  37.6957190  14.3461670
  49.2538690  38.0838900  13.8276780  50.2244440  38.3907480  14.9482600
  36.1411690  34.1650560  14.9095740  36.1430130  34.6822950  14.1041640
  35.3116000  33.6880740  14.8865670  42.5282780  44.2769870   6.4085640
  41.9100050  44.7419320   5.8448360  43.0406030  44.9697350   6.8255150
  37.3914540  43.8045740  13.0869240  37.0583920  44.4314660  13.7290310
  37.5681220  44.3307620  12.3070910  45.9048450  37.6190820  10.5545580
  45.2004020  37.9075710  11.1348690  46.2660610  38.4290930  10.1945140
  35.8227020  35.8760520  12.9166190  36.1643830  36.7202570  12.6220060
  34.8842830  36.0244260  13.0331530  36.6033640  45.7726540  14.9018420
  37.2207640  46.4477620  14.6202870  35.7426760  46.1814520  14.8105920
  31.8965980  44.9626400   3.7825270  31.5193960  45.4513500   3.0510170
  32.1539050  45.6351680   4.4131800  47.5211230  47.2365950  12.8173060
  46.8374750  47.9065060  12.8089730  48.0605520  47.4346600  12.0517920
  48.9735370  37.0645610  10.9454790  48.0260280  37.0984590  11.0770220
  49.2985360  37.8784560  11.3304150  39.5054910  33.3642790   9.2410780
  39.8129890  32.8089680   8.5246280  38.5755610  33.4987250   9.0583770
  45.0569970  49.0810080  11.5318240  45.0697130  48.6772370  10.6640500
  44.5045190  49.8557370  11.4279670  46.3515390  45.8026300   6.6208410
  46.2411720  44.8600630   6.7457830  46.3483640  46.1641940   7.5071170
  44.4555410  43.9839920  12.8600850  44.8724200  43.7700030  12.0254310
  45.1795230  44.2412710  13.4309470  41.8935670  41.4291620   5.9770900
  40.9664950  41.3629000   6.2059370  42.0460490  42.3671750   5.8626140
  41.8804750  37.7008620   2.9738060  40.9408420  37.8622580   3.0590520
  42.1988010  38.4194300   2.4274050  48.4017510  42.3827140  12.9517090
  47.5736140  42.4520230  12.4767220  48.9967990  42.9681450  12.4832920
  45.9232960  42.9911920   6.4806150  45.3045380  42.6531470   5.8332450
  45.9057410  42.3471680   7.1885340  45.3659520  39.1696460  13.8971960
  44.9530700  39.9950170  14.1511950  44.6335470  38.5841500  13.7048320
  37.4992310  41.9556360   8.7590630  37.0949310  41.2433610   8.2636530
  37.5855430  41.6109600   9.6478670  37.9674010  45.6423920  10.9229840
  37.6702300  45.0369390  10.2437620  38.9173830  45.6801230  10.8119200
  36.2120930  38.7299570  12.5389670  36.7635520  38.8394910  11.7642920
  36.7264440  39.1037170  13.2544900  46.0559620  49.2155790  14.5852940
  45.5790180  50.0227980  14.3925550  45.3721410  48.5634120  14.7379150
  37.0592440  45.3805610  17.5737640  36.1620970  45.6045580  17.8211040
  37.0845310  45.5040550  16.6249040  44.0997660  42.2298730   3.4878900
  44.5390940  41.3921160   3.3416720  44.8126080  42.8628130   3.5743040
  35.8863660  42.2518930  16.1495010  35.7471430  43.1241730  16.5182410
  35.0045020  41.9091740  16.0042950  42.2093040  47.1694800   7.4560140
  42.6488950  47.9119130   7.0415530  42.1479930  47.4121370   8.3799100
  37.6844010  48.1940630  18.3580160  37.6559440  48.5983580  17.4908590
  37.5208980  47.2650990  18.1951760  47.6814800  33.4841540   1.8019940
  47.3687460  33.5768370   2.7019010  48.4427270  34.0622570   1.7517370
  34.1996940  40.8501340   6.2597280  34.0794540  41.5763430   5.6478550
  33.8897830  40.0804250   5.7825190  49.6358830  48.9767730  19.6544330
  50.1118550  49.4550620  20.3333410  50.2565990  48.9085220  18.9289830
  31.8382310  44.0216480  12.0665920  31.9162730  44.1565250  11.1221640
  32.4523990  43.3132370  12.2594040  33.0829940  45.7216670   8.4772100
  32.6758020  45.8631260   7.6225700  33.9742950  45.4376830   8.2743310
  49.0392080  46.1680580  16.8144340  49.1655140  45.9292460  15.8961520
  49.0813460  45.3365120  17.2866420  42.9008820  49.8708580  15.3839150
  43.4153490  49.7816590  16.1861580  42.0577900  50.2168280  15.6767060
  44.8763220  50.1563920   4.8123150  44.7164360  49.8666860   5.7104980
  44.7109930  49.3804050   4.2768380  37.3551600  49.9362450   6.5894770
  37.1794080  49.0197990   6.3762570  36.5007340  50.2949740   6.8292570
  44.5789350  47.6651480   3.3721150  43.8854510  47.6628770   2.7123430
  45.3212210  47.2410800   2.9415320  44.1439280  49.2914190   7.4469640
  44.5996230  48.5103570   7.7608260  44.4831800  50.0021010   7.9910820
  48.8916090  38.2213040  17.7794080  48.2760360  38.7292710  17.2509540
  48.5712510  37.3211370  17.7220020  31.8941830  45.0630650  14.6060380
  32.0572870  44.5936010  13.7879750  32.3594280  44.5554210  15.2709220
  36.6660600  34.1936410   9.6420950  36.2228750  34.9745950   9.3105470
  37.2245590  34.5166300  10.3491890  40.9530410  37.0604930  15.2456270
  40.4909780  37.2687950  16.0576210  40.5508520  36.2464280  14.9426940
  45.9534920  38.2813880  16.3752930  45.1028510  37.9819630  16.6962000
  45.7936710  38.5255890  15.4636750  43.0484630  39.7815630  18.4751720
  43.3738040  38.9479380  18.1353950  43.8364960  40.3044150  18.6230050
  39.7819420  33.8147110   4.5226780  39.1573600  33.8106980   5.2480090
  39.6949540  32.9478070   4.1262750  38.7036500  34.7383740  11.5010550
  39.0008830  35.6446570  11.4202570  39.2522060  34.2502520  10.8870120
  36.4574820  39.3169980   7.3702200  36.2315740  39.1007150   8.2748820
  35.6767350  39.7498440   7.0248170  43.6872580  39.3233350   5.9692850
  43.0881470  40.0469150   5.7856470  44.2352190  39.2610130   5.1869300
  38.8974030  40.2155560  18.0362470  38.8017630  39.2750290  17.8862870
  39.7406010  40.4370630  17.6410540  42.2937450  37.9596890   7.9996130
  42.6867020  38.2769090   7.1864820  42.6554300  37.0808770   8.1140650
  34.0284570  36.6269230  16.1896250  33.6347960  37.4744440  16.3969030
  33.3402970  35.9895600  16.3804890  40.6029620  36.7104200  19.2592990
  39.9127940  36.5176400  19.8939080  41.3461920  36.9938840  19.7917290
  31.3301620  34.5497690  10.2226330  31.0414670  35.1200550  10.9351310
  32.0747380  34.0702140  10.5857560  42.8792590  40.5502640  12.0946910
  42.1473710  41.0589450  12.4437010  42.4816930  39.7332620  11.7935690
  39.3169980  37.2256840  10.4999400  39.3206040  36.7846790   9.6503940
  40.2121100  37.5474170  10.6071220  35.1672360  37.1083330   9.4593610
  34.8272410  37.5858560  10.2160660  34.4049680  36.6548450   9.0994710
  39.3790130  38.2268920   3.4906160  39.5002950  38.1855400   4.4391980
  38.9938640  39.0893070   3.3352890  43.3418500  36.0036320  11.5069850
  43.3591240  36.4544970  12.3511700  43.0934080  35.1041960  11.7203290
  38.3911630  40.5370060   2.8889460  37.8228530  40.0888310   2.2625370
  39.1000630  40.8962840   2.3554610  46.7689250  33.4168500  17.3456230
  47.0935020  32.6858160  17.8714210  46.8045760  33.0982140  16.4437220
  33.4680810  44.4382080  16.7656190  33.0835600  43.7975750  17.3639150
  33.7793000  45.1418200  17.3350920  39.6177950  41.2858620  12.2464810
  39.9848080  40.8117190  12.9926150  39.4283010  42.1600190  12.5873150
  32.4818440  36.0302310   8.3758280  32.1965360  35.6657980   9.2136900
  32.4197300  35.2982770   7.7621420  37.4077320  40.3267260  14.5649020
  37.1034390  41.2059240  14.7899380  38.3623780  40.3867050  14.6006460
  35.9359110  44.5328250   5.1615870  35.1621370  43.9925870   5.0014590
  36.6653740  44.0134860   4.8233630  46.6947090  43.5293610  10.9542260
  47.4146210  44.0248900  10.5638370  46.4928910  42.8511500  10.3096130
  42.1557030  34.9231570   5.0971650  41.3421640  34.4244740   5.0216960
  41.9618980  35.7629820   4.6808000  42.0765890  43.6002670  16.8411260
  42.0103200  42.6798340  16.5868850  41.4471030  43.6978110  17.5555900
  44.8705420  39.2951220   3.3933810  45.7585040  39.6068450   3.2185150
  44.8410510  38.4223470   3.0014390  35.9796510  44.2008630   8.7994680
  36.4975180  43.3976890   8.7451570  35.5280530  44.1387770   9.6411510
  40.8666010  45.4674910   4.0721980  41.2081710  46.2117140   3.5765300
  40.0378720  45.7806030   4.4346810  33.4641050  41.1670000  15.7120380
  33.1055990  41.8323850  16.2993720  33.1695610  40.3353550  16.0833000
  36.6654170  41.6254240  18.5959930  36.3654310  41.7711420  17.6987750
  37.4365410  41.0659530  18.5033320  42.0082620  46.4223240  16.5915060
  42.0227160  45.4904200  16.3733970  41.3007720  46.5083000  17.2304830
  47.1419690  40.6063060   2.8613670  47.0583410  41.0377280   2.0110110
  47.8613880  41.0661410   3.2940490  48.2193830  43.0630580  15.9383640
  47.4942020  43.6559360  15.7413030  48.7469290  43.0554120  15.1397010
  48.1706940  47.4605320   5.5895800  47.5283100  46.8060940   5.8639520
  47.7837600  47.8660410   4.8136470  43.7493420  44.7890750   9.4367490
  44.1017240  44.1918880   8.7768860  42.8655750  44.4634980   9.6075740
  39.8356700  45.5488440   6.8437900  40.5227830  46.0957650   7.2245490
  39.0489120  46.0929170   6.8787510  31.9749100  41.1661260   2.3354980
  32.8443950  41.4486060   2.6190900  31.4839420  41.9797130   2.2203790
  39.1383910  42.5534470   6.4563260  39.5946690  43.3639720   6.6823450
  38.7872120  42.2357610   7.2881750  41.4416520  48.0640810  13.6855560
  42.0858740  48.2700190  14.3628980  41.8045960  47.3029210  13.2326410
  35.0395690  32.8972120   6.9285780  34.9110320  32.8890020   7.8770700
  34.2157710  33.2355210   6.5776790  42.7148600  46.0673160  12.4033010
  43.3570830  45.3666320  12.5165180  43.2397950  46.8471600  12.2229900
  44.4886220  46.8668060  15.6069070  44.8242460  47.4534750  16.2846990
  43.5686560  46.7360770  15.8366860  32.3420350  50.3788640   2.9016610
  32.7017990  50.9777980   2.2473880  32.2012690  50.9248530   3.6751640
  32.0389620  34.6563240  16.3892480  31.3248140  34.8560160  16.9945090
  32.4584660  33.8802810  16.7607280  46.1420570  44.2693720   3.7886310
  45.8542270  44.7306410   4.5764190  46.9372740  43.8091490   4.0570530
  32.3262210  48.6443500  17.3759010  32.4353330  47.7038240  17.2354400
  31.6742770  48.9098250  16.7272740  40.3174800  46.9159390  18.7757130
  39.9971670  46.1968630  19.3202820  39.6433160  47.5914460  18.8493190
  38.3588970  47.7619840   3.7190280  38.3499070  48.4949530   3.1034790
  37.4387330  47.5151420   3.8117240  33.9595610  42.9834730   4.4637040
  33.3523560  43.7233630   4.4732340  34.4344960  43.0734090   3.6375240
  43.5328400  37.1485550  14.1393930  43.9009220  36.3280760  14.4673500
  42.6726600  37.2087440  14.5549580  46.8990430  36.1042490   4.9481490
  46.2703590  36.2088160   4.2339720  46.4042350  36.3239270   5.7375370
  41.3448570  47.8248080   2.3815470  41.4460550  47.6212070   1.4517450
  40.4450310  47.5706360   2.5863250  38.8674460  38.3828440   6.3639370
  38.1590610  38.8514780   6.8052980  39.1518940  37.7250450   6.9984560
  40.4930390  39.8025140  14.3631900  40.9915640  40.2770960  15.0283750
  40.6353340  38.8788660  14.5701930  42.8989890  35.1079100   7.8035160
  42.7757670  35.1265230   6.8544670  43.8474450  35.1558040   7.9233560
  39.9866680  50.3434400   7.0763140  40.2408180  50.3055790   6.1542510
  39.0379160  50.2167730   7.0691390  37.0709480  36.6913520   3.7390080
  37.9200010  37.1283670   3.6730270  36.7040750  37.0033780   4.5662140
  47.6997250  36.0193100  15.2060290  47.1970850  36.7598500  15.5454100
  48.5153910  36.4077100  14.8897080  45.9919260  41.2626280   8.6521650
  45.0509400  41.2776510   8.8269340  46.3063330  40.4762240   9.0981950
  35.9700900  42.9445880   2.2125610  36.7364170  42.8327240   2.7751040
  36.0475590  42.2483850   1.5602380  34.6647660  40.3770950   2.8958500
  34.7451250  39.4298460   3.0075900  35.5567410  40.7077830   3.0019160
  47.9944840  48.4335130  10.3275910  48.1192260  49.2566300  10.7999720
  48.8610400  48.2225860   9.9800060  35.4662370  50.5266340   9.9993040
  36.2024850  49.9781800  10.2701610  35.8503290  51.3922350   9.8599030
  32.3507850  46.5939910   5.8734550  31.4247630  46.8361050   5.8639960
  32.8164280  47.4214170   5.7519300  34.4720650  49.7112410  19.1878620
  35.2733380  50.0324460  19.6014020  33.9572470  49.3507990  19.9098530
  43.3085280  45.8192280  19.1354030  42.7023440  45.8423880  18.3949780
  43.0039390  45.0875320  19.6721280  44.7385650  49.5472570  17.7463440
  45.6907400  49.4630590  17.6963680  44.5913870  50.2114280  18.4197230
  47.6294850  48.9266780   3.2455350  47.3436360  48.5131920   2.4309530
  47.4314400  49.8554490   3.1255870  32.1918460  42.1985870  18.1314670
  32.6957480  41.6193150  18.7030900  31.4525880  42.4826100  18.6691040
  39.2456400  43.6056860  17.6650190  38.4802070  44.1741860  17.5804860
  39.4272360  43.3133070  16.7718420  42.3344810  43.9820090   2.2902950
  41.7854910  44.4289390   2.9345690  42.9564070  43.4769340   2.8140620
  46.3879750  45.3362190  18.2225210  47.1289220  45.6737950  17.7192670
  45.6252430  45.5054250  17.6694980  34.2241540  40.3415460  19.0264740
  34.2646880  40.0429330  19.9349970  35.0787040  40.7423070  18.8672260
  38.0019930  42.9411010   4.1868250  38.4236350  42.7750880   5.0299640
  38.1270770  42.1311240   3.6923390  36.1647350  38.9207560  16.9939230
  35.6343810  38.4298510  16.3662570  36.8335420  39.3491760  16.4597160
  45.0625410  43.3877020  16.7580420  45.4766430  43.5422100  17.6070840
  44.1276410  43.5132240  16.9206200  45.5347580  40.7273180  18.7619570
  46.1168350  39.9725500  18.6740050  45.7109350  41.2580620  17.9851050
  36.6519650  35.8869930  17.0736520  36.5576520  35.2690680  16.3487390
  36.0717040  36.6136220  16.8466430  39.4181090  34.4443170  14.1063910
  38.9698390  34.4667430  13.2609460  38.7846290  34.0462190  14.7034210
  39.8240640  43.3397500  14.7276350  40.2428750  44.1830230  14.5552590
  38.9049270  43.4769540  14.4983130  42.1604540  41.0713680  16.1114190
  42.2800750  40.4754820  16.8509030  43.0198540  41.1083370  15.6915490
  44.4992440  41.6250870  14.6876700  43.9727660  42.1493490  14.0841840
  44.8423780  42.2578260  15.3186430  37.6748060  49.6450510  15.8434080
  37.1369150  50.3696570  15.5242780  37.9282020  49.1680850  15.0531420
  38.9273310  37.6135030  17.3690010  39.5173000  37.3050880  18.0567830
  38.1093550  37.1414780  17.5249910  43.7466740  37.2300840  17.6023030
  43.0582260  36.5682380  17.5373020  44.4672760  36.7839110  18.0471490
  44.3767140  33.8252470   3.6613290  44.6569430  32.9820370   4.0172710
  43.6032870  34.0575580   4.1752040  40.5310270  50.8801720  16.1020730
  40.4568970  51.7836860  16.4093100  39.6289110  50.5613620  16.0742800
  38.9146560  35.0579480   2.1060490  38.5668560  34.3803470   1.5262940
  39.1159330  34.5968990   2.9203880  41.0795600  50.0460230   3.7247090
  41.9746390  50.3845200   3.7465850  41.1113230  49.3239640   3.0971370
  34.7191760  45.4187280   1.9534090  35.1566630  45.9616950   2.6091670
  35.2039490  44.5934230   1.9630430  31.9337560  48.2076310   9.4054350
  32.2640570  47.3397370   9.1732990  32.3628560  48.4134830  10.2359310
  36.5299480  46.5385320   7.0656320  36.2295020  46.4150290   7.9660230
  36.4236970  45.6793910   6.6572050  32.4227770  49.0746900  12.1435980
  31.9858760  49.2547700  12.9760130  32.9905450  49.8321520  12.0017700
  48.0589950  48.5763900  16.4313290  47.4591940  48.6356460  15.6877210
  48.1883850  47.6368880  16.5610140  49.2991400  46.3181720   1.7683000
  48.4684360  46.3858370   2.2390230  49.4763230  47.2085840   1.4649860
  48.7547860  43.0629200   4.2717200  49.5166770  43.6325850   4.3776890
  48.7702230  42.4956400   5.0425510  32.2552200  41.5867130   8.5024860
  31.6001040  41.3178770   7.8584560  33.0930150  41.4771610   8.0526840
  49.7607830  43.9179300   9.1159130  50.1316660  43.1346620   8.7095100
  50.4009760  44.6068400   8.9376430  46.7441590  45.3015880  14.5289450
  45.9301430  45.7313040  14.7915240  47.1515790  45.9134290  13.9158500
  45.2042640  36.3808420   2.7243350  45.6227520  36.1939400   1.8840010
  44.8978700  35.5287470   3.0346280  48.7032370  41.2932560   6.4219150
  48.3275970  40.5260490   5.9900440  47.9735490  41.6755260   6.9094080
  33.2928130  41.9719700  13.0428200  33.6601170  41.8847100  13.9224220
  32.7238950  41.2086250  12.9435060  48.0931990  40.4404080  16.0558670
  47.8618080  40.2116830  15.1556620  48.3536540  41.3603630  16.0103560
  32.8444130  38.8828790  16.9486620  31.9500180  38.8495550  17.2880330
  33.3841680  39.0815580  17.7137870  46.5320060  35.6660510  18.8338370
  47.4090240  35.6743910  19.2172370  46.5440900  34.9291350  18.2230720
  31.4690280  38.7966060   4.4450190  30.5654360  39.0596260   4.2701850
  31.9530900  39.0677230   3.6650150  47.9783330  39.5190050   9.7226390
  48.5020810  39.0252700   9.0916560  48.5642750  39.6540410  10.4673960
  48.1573050  39.6029920  13.2445940  47.2075760  39.5693460  13.3590930
  48.3386060  40.5130030  13.0095710  34.0117490  37.8531600   2.3544570
  34.7209190  37.4314820   1.8691850  33.2957430  37.9206830   1.7227920
  47.4683300  38.7763400   5.6618800  47.9642420  38.5434270   6.4467680
  47.2699370  37.9375240   5.2456440  33.3483840  33.1577120  11.2969840
  33.9960030  32.6074500  10.8565000  33.7685680  33.4120270  12.1185650
  48.8970460  37.4124350   8.1956480  48.7869740  37.2580390   9.1338750
  49.6578050  36.8845290   7.9531890  47.2436180  33.3518480  14.6539480
  47.8808400  33.9652620  15.0198670  47.3911070  33.3879140  13.7088710
  49.8599220  36.0142930   4.0619330  49.0650720  35.9488050   4.5912240
  50.0642500  36.9493570   4.0504680  46.8017640  50.0534480   8.0557720
  47.3976710  49.7319050   7.3792140  47.0595790  49.5806300   8.8470990
  33.1015840  33.3132790  14.0395160  32.7530660  33.7696610  14.8053340
  32.7703540  32.4189920  14.1217590  34.7080210  46.4852390  18.2048350
  34.6649840  46.1145300  19.0862810  34.8391220  47.4229960  18.3450170
  38.4086240  48.0411980  13.8058070  38.1677600  48.3086540  12.9188590
  39.3488880  48.2117710  13.8608930  40.6140660  34.5044670  17.5614580
  40.5529550  35.0966500  18.3109990  41.5541040  34.3970630  17.4164840
  43.2515220  34.1614730  17.2006870  43.8655630  34.4794020  16.5387950
  43.7964780  33.6763320  17.8202730  49.6690400  50.0606360  14.6068710
  49.1748680  50.4575230  13.8895840  49.0603690  49.4355570  15.0005990
  33.7736480  32.8408990  17.3145930  34.3219470  32.6597040  16.5512040
  33.8391790  32.0503100  17.8502240  34.5468240  49.4314640  15.3246130
  33.9528560  49.2999340  16.0636170  34.5392080  48.5952780  14.8588230
  43.9923260  32.7246870  13.5276160  43.1183100  33.0581980  13.3249090
  43.8834010  32.2520050  14.3528030  44.8995240  34.9317740  14.9117880
  44.5708600  34.1169500  14.5319610  45.8477540  34.8887550  14.7883570
  47.3529850  50.7029780  11.8855450  46.8932820  51.4545590  11.5113470
  46.7242310  49.9836250  11.8270250  34.1780470  46.7973020  14.2754170
  33.4514530  46.1778310  14.2080120  34.2389620  47.1913630  13.4052250
  37.7825570  49.0118020  11.0603580  38.2990590  48.4005380  10.5351840
  38.4322950  49.5146800  11.5514590  40.5221070  49.9026510  11.8872560
  40.8098880  49.6480810  11.0105570  41.0344290  49.3503870  12.4778130
  41.7398080  33.6416710  12.4669070  40.9569870  34.1162210  12.7465830
  41.4461010  32.7371540  12.3582250  46.2919150  34.3439810  10.5118160
  46.7327240  34.2884910   9.6639760  46.0226740  35.2597820  10.5828340
  48.1557720  33.9755050   8.5226980  48.0946120  33.0316270   8.3758000
  48.9349750  34.0835140   9.0680440  32.4610470  50.1147410   7.4850930
  32.2932510  49.4818090   8.1832820  31.5944980  50.3206810   7.1345120
  33.0838490  33.9464190   4.9882790  33.8417850  34.0593070   4.4146820
  32.6215660  34.7833390   4.9426220  39.6252300  36.0603460   7.9785100
  38.8126810  35.6860350   7.6380980  40.1293940  35.3048540   8.2806290
  44.1277280  32.7245910   9.2168170  44.7306650  33.2966120   9.6916690
  43.3870270  33.2885350   8.9942070  47.2711880  33.1267470   4.4908450
  47.4662510  34.0250920   4.7575880  46.4841750  32.8954550   4.9841400
  34.0673170  48.8080640   4.9301070  33.5420790  49.1888670   4.2263030
  33.9917750  49.4331410   5.6510780  35.4563640  34.4728240   3.5284760
  35.9856400  33.6858040   3.3992710  36.0891960  35.1519430   3.7620290
  37.6501480  34.2103380   6.5830150  37.0204220  33.5090690   6.7500280
  37.1106620  34.9707510   6.3663310  40.5893430  50.8242610  19.2540760
  41.5160740  50.5886880  19.2976720  40.5743860  51.6514610  18.7726790
  48.8238490  50.3668180   6.2515010  48.9990680  49.6805920   5.6075930
  48.1260060  50.8915230   5.8591680  37.7757040  33.4887360  19.0182640
  37.4941310  33.9920960  18.2543460  38.1576740  32.6909110  18.6524770
  36.6666140  50.7563020   3.8050320  37.3984960  50.4722300   3.2574210
  36.9259810  50.5176300   4.6949700  35.8280930  46.8727750   3.8096650
  35.1989810  47.3412850   4.3582480  35.9428760  46.0276970   4.2442840
  44.3772500  32.9040940  19.5963110  44.2637950  33.2235550  20.4914630
  45.1942240  33.3053450  19.3000390  47.1570990  50.0512470  19.0781800
  47.9496310  49.5561700  18.8707760  47.4504140  50.7302610  19.6857410
  43.2830650  22.1489920  46.2828320  43.2024700  21.2344530  46.0120030
  42.8695070  22.6456990  45.5768030  41.4148690  23.9268940  48.1637590
  40.6390790  23.4469380  48.4536160  42.0661620  23.2474590  47.9893750
  35.4314520  24.2388750  49.0413350  34.5999400  23.9837460  49.4409860
  36.0395500  24.3099520  49.7771270  45.4356120  28.3329130  46.9436720
  44.9737650  27.5616370  47.2723890  46.2481670  28.3595200  47.4489170
  35.4115780  28.2728840  49.2371370  35.7143820  27.3826580  49.0581590
  36.1559370  28.8299060  49.0093620  33.8406470  19.1990640  42.8255740
  32.9523170  19.5406610  42.7235620  34.1247660  18.9990960  41.9336570
  31.8039480  21.7996290  48.7095440  32.3755590  21.0318490  48.7099080
  31.8041020  22.0985050  47.8002050  41.6619430  30.6187140  46.5640710
  41.0430870  31.0744640  45.9935150  42.5171210  30.7738600  46.1630410
  40.8557680  26.6026130  48.1707750  40.7865960  25.6616070  48.0096880
  41.6177540  26.6927540  48.7430320  33.0464350  17.2080650  50.4964370
  32.8667190  16.3106400  50.7767130  32.6444430  17.7552520  51.1711320
  41.8862850  19.4096510  48.3976680  42.2627670  18.5368390  48.2850350
  41.7882360  19.7455210  47.5067120  36.0167860  17.7822140  43.8594120
  36.1234610  18.6825870  44.1662880  35.1060220  17.7340110  43.5688770
  45.6686970  16.9046950  45.3305020  46.4896590  16.4143520  45.3730500
  45.7021050  17.4944610  46.0836860  33.6651020  19.7041150  49.1046710
  34.3461130  19.9679520  49.7234110  33.3499070  18.8642020  49.4384720
  37.8575590  20.7508510  48.1919300  38.3653810  21.2489480  48.8324320
  38.3888830  19.9743710  48.0158660  49.9586520  18.9213700  51.8948650
  49.2538690  19.3095410  51.3763760  50.2244440  19.6163990  52.4969580
  36.1411690  15.3907070  52.4582720  36.1430130  15.9079460  51.6528620
  35.3116000  14.9137250  52.4352650  42.5282780  25.5026380  43.9572620
  41.9100050  25.9675830  43.3935340  43.0406030  26.1953860  44.3742130
  37.3914540  25.0302250  50.6356220  37.0583920  25.6571170  51.2777290
  37.5681220  25.5564130  49.8557890  45.9048450  18.8447330  48.1032560
  45.2004020  19.1332220  48.6835670  46.2660610  19.6547440  47.7432120
  35.8227020  17.1017030  50.4653170  36.1643830  17.9459080  50.1707040
  34.8842830  17.2500770  50.5818510  36.6033640  26.9983050  52.4505400
  37.2207640  27.6734130  52.1689850  35.7426760  27.4071030  52.3592900
  31.8965980  26.1882910  41.3312250  31.5193960  26.6770010  40.5997150
  32.1539050  26.8608190  41.9618780  47.5211230  28.4622460  50.3660040
  46.8374750  29.1321570  50.3576710  48.0605520  28.6603110  49.6004900
  48.9735370  18.2902120  48.4941770  48.0260280  18.3241100  48.6257200
  49.2985360  19.1041070  48.8791130  39.5054910  14.5899300  46.7897760
  39.8129890  14.0346190  46.0733260  38.5755610  14.7243760  46.6070750
  45.0569970  30.3066590  49.0805220  45.0697130  29.9028880  48.2127480
  44.5045190  31.0813880  48.9766650  46.3515390  27.0282810  44.1695390
  46.2411720  26.0857140  44.2944810  46.3483640  27.3898450  45.0558150
  44.4555410  25.2096430  50.4087830  44.8724200  24.9956540  49.5741290
  45.1795230  25.4669220  50.9796450  41.8935670  22.6548130  43.5257880
  40.9664950  22.5885510  43.7546350  42.0460490  23.5928260  43.4113120
  41.8804750  18.9265130  40.5225040  40.9408420  19.0879090  40.6077500
  42.1988010  19.6450810  39.9761030  48.4017510  23.6083650  50.5004070
  47.5736140  23.6776740  50.0254200  48.9967990  24.1937960  50.0319900
  45.9232960  24.2168430  44.0293130  45.3045380  23.8787980  43.3819430
  45.9057410  23.5728190  44.7372320  45.3659520  20.3952970  51.4458940
  44.9530700  21.2206680  51.6998930  44.6335470  19.8098010  51.2535300
  37.4992310  23.1812870  46.3077610  37.0949310  22.4690120  45.8123510
  37.5855430  22.8366110  47.1965650  37.9674010  26.8680430  48.4716820
  37.6702300  26.2625900  47.7924600  38.9173830  26.9057740  48.3606180
  36.2120930  19.9556080  50.0876650  36.7635520  20.0651420  49.3129900
  36.7264440  20.3293680  50.8031880  46.0559620  30.4412300  52.1339920
  45.5790180  31.2484490  51.9412530  45.3721410  29.7890630  52.2866130
  37.0592440  26.6062120  55.1224620  36.1620970  26.8302090  55.3698020
  37.0845310  26.7297060  54.1736020  44.0997660  23.4555240  41.0365880
  44.5390940  22.6177670  40.8903700  44.8126080  24.0884640  41.1230020
  35.8863660  23.4775440  53.6981990  35.7471430  24.3498240  54.0669390
  35.0045020  23.1348250  53.5529930  42.2093040  28.3951310  45.0047120
  42.6488950  29.1375640  44.5902510  42.1479930  28.6377880  45.9286080
  37.6844010  29.4197140  55.9067140  37.6559440  29.8240090  55.0395570
  37.5208980  28.4907500  55.7438740  47.6814800  14.7098050  39.3506920
  47.3687460  14.8024880  40.2505990  48.4427270  15.2879080  39.3004350
  34.1996940  22.0757850  43.8084260  34.0794540  22.8019940  43.1965530
  33.8897830  21.3060760  43.3312170  31.8382310  25.2472990  49.6152900
  31.9162730  25.3821760  48.6708620  32.4523990  24.5388880  49.8081020
  33.0829940  26.9473180  46.0259080  32.6758020  27.0887770  45.1712680
  33.9742950  26.6633340  45.8230290  49.0392080  27.3937090  54.3631320
  49.1655140  27.1548970  53.4448500  49.0813460  26.5621630  54.8353400
  42.9008820  31.0965090  52.9326130  43.4153490  31.0073100  53.7348560
  42.0577900  31.4424790  53.2254040  44.8763220  31.3820430  42.3610130
  44.7164360  31.0923370  43.2591960  44.7109930  30.6060560  41.8255360
  37.3551600  31.1618960  44.1381750  37.1794080  30.2454500  43.9249550
  36.5007340  31.5206250  44.3779550  44.5789350  28.8907990  40.9208130
  43.8854510  28.8885280  40.2610410  45.3212210  28.4667310  40.4902300
  44.1439280  30.5170700  44.9956620  44.5996230  29.7360080  45.3095240
  44.4831800  31.2277520  45.5397800  48.8916090  19.4469550  55.3281060
  48.2760360  19.9549220  54.7996520  48.5712510  18.5467880  55.2707000
  31.8941830  26.2887160  52.1547360  32.0572870  25.8192520  51.3366730
  32.3594280  25.7810720  52.8196200  36.6660600  15.4192920  47.1907930
  36.2228750  16.2002460  46.8592450  37.2245590  15.7422810  47.8978870
  40.9530410  18.2861440  52.7943250  40.4909780  18.4944460  53.6063190
  40.5508520  17.4720790  52.4913920  45.9534920  19.5070390  53.9239910
  45.1028510  19.2076140  54.2448980  45.7936710  19.7512400  53.0123730
  43.0484630  21.0072140  56.0238700  43.3738040  20.1735890  55.6840930
  43.8364960  21.5300660  56.1717030  39.7819420  15.0403620  42.0713760
  39.1573600  15.0363490  42.7967070  39.6949540  14.1734580  41.6749730
  38.7036500  15.9640250  49.0497530  39.0008830  16.8703080  48.9689550
  39.2522060  15.4759030  48.4357100  36.4574820  20.5426490  44.9189180
  36.2315740  20.3263660  45.8235800  35.6767350  20.9754950  44.5735150
  43.6872580  20.5489860  43.5179830  43.0881470  21.2725660  43.3343450
  44.2352190  20.4866640  42.7356280  38.8974030  21.4412070  55.5849450
  38.8017630  20.5006800  55.4349850  39.7406010  21.6627140  55.1897520
  42.2937450  19.1853400  45.5483110  42.6867020  19.5025600  44.7351800
  42.6554300  18.3065280  45.6627630  34.0284570  17.8525740  53.7383230
  33.6347960  18.7000950  53.9456010  33.3402970  17.2152110  53.9291870
  31.3301620  15.7754200  47.7713310  31.0414670  16.3457060  48.4838290
  32.0747380  15.2958650  48.1344540  31.5171850  19.7174320  38.9816030
  31.4346520  20.6605080  39.1231020  31.1654910  19.5749230  38.1028380
  42.8792590  21.7759150  49.6433890  42.1473710  22.2845960  49.9923990
  42.4816930  20.9589130  49.3422670  39.3169980  18.4513350  48.0486380
  39.3206040  18.0103300  47.1990920  40.2121100  18.7730680  48.1558200
  35.1672360  18.3339840  47.0080590  34.8272410  18.8115070  47.7647640
  34.4049680  17.8804960  46.6481690  39.3790130  19.4525430  41.0393140
  39.5002950  19.4111910  41.9878960  38.9938640  20.3149580  40.8839870
  43.3418500  17.2292830  49.0556830  43.3591240  17.6801480  49.8998680
  43.0934080  16.3298470  49.2690270  38.3911630  21.7626570  40.4376440
  37.8228530  21.3144820  39.8112350  39.1000630  22.1219350  39.9041590
  46.7689250  14.6425010  54.8943210  47.0935020  13.9114670  55.4201190
  46.8045760  14.3238650  53.9924200  33.4680810  25.6638590  54.3143170
  33.0835600  25.0232260  54.9126130  33.7793000  26.3674710  54.8837900
  39.6177950  22.5115130  49.7951790  39.9848080  22.0373700  50.5413130
  39.4283010  23.3856700  50.1360130  32.4818440  17.2558820  45.9245260
  32.1965360  16.8914490  46.7623880  32.4197300  16.5239280  45.3108400
  37.4077320  21.5523770  52.1136000  37.1034390  22.4315750  52.3386360
  38.3623780  21.6123560  52.1493440  35.9359110  25.7584760  42.7102850
  35.1621370  25.2182380  42.5501570  36.6653740  25.2391370  42.3720610
  46.6947090  24.7550120  48.5029240  47.4146210  25.2505410  48.1125350
  46.4928910  24.0768010  47.8583110  42.1557030  16.1488080  42.6458630
  41.3421640  15.6501250  42.5703940  41.9618980  16.9886330  42.2294980
  42.0765890  24.8259180  54.3898240  42.0103200  23.9054850  54.1355830
  41.4471030  24.9234620  55.1042880  44.8705420  20.5207730  40.9420790
  45.7585040  20.8324960  40.7672130  44.8410510  19.6479980  40.5501370
  35.9796510  25.4265140  46.3481660  36.4975180  24.6233400  46.2938550
  35.5280530  25.3644280  47.1898490  40.8666010  26.6931420  41.6208960
  41.2081710  27.4373650  41.1252280  40.0378720  27.0062540  41.9833790
  33.4641050  22.3926510  53.2607360  33.1055990  23.0580360  53.8480700
  33.1695610  21.5610060  53.6319980  36.6654170  22.8510750  56.1446910
  36.3654310  22.9967930  55.2474730  37.4365410  22.2916040  56.0520300
  42.0082620  27.6479750  54.1402040  42.0227160  26.7160710  53.9220950
  41.3007720  27.7339510  54.7791810  47.1419690  21.8319570  40.4100650
  47.0583410  22.2633790  39.5597090  47.8613880  22.2917920  40.8427470
  48.2193830  24.2887090  53.4870620  47.4942020  24.8815870  53.2900010
  48.7469290  24.2810630  52.6883990  48.1706940  28.6861830  43.1382780
  47.5283100  28.0317450  43.4126500  47.7837600  29.0916920  42.3623450
  43.7493420  26.0147260  46.9854470  44.1017240  25.4175390  46.3255840
  42.8655750  25.6891490  47.1562720  39.8356700  26.7744950  44.3924880
  40.5227830  27.3214160  44.7732470  39.0489120  27.3185680  44.4274490
  31.9749100  22.3917770  39.8841960  32.8443950  22.6742570  40.1677880
  31.4839420  23.2053640  39.7690770  39.1383910  23.7790980  44.0050240
  39.5946690  24.5896230  44.2310430  38.7872120  23.4614120  44.8368730
  41.4416520  29.2897320  51.2342540  42.0858740  29.4956700  51.9115960
  41.8045960  28.5285720  50.7813390  35.0395690  14.1228630  44.4772760
  34.9110320  14.1146530  45.4257680  34.2157710  14.4611720  44.1263770
  42.7148600  27.2929670  49.9519990  43.3570830  26.5922830  50.0652160
  43.2397950  28.0728110  49.7716880  46.5604320  27.5778290  39.6759130
  46.3341900  26.8608730  40.2683770  46.1700520  27.3290730  38.8380880
  44.4886220  28.0924570  53.1556050  44.8242460  28.6791260  53.8333970
  43.5686560  27.9617280  53.3853840  32.3420350  31.6045150  40.4503590
  32.7017990  32.2034490  39.7960860  32.2012690  32.1505040  41.2238620
  32.0389620  15.8819750  53.9379460  31.3248140  16.0816670  54.5432070
  32.4584660  15.1059320  54.3094260  46.1420570  25.4950230  41.3373290
  45.8542270  25.9562920  42.1251170  46.9372740  25.0348000  41.6057510
  32.3262210  29.8700010  54.9245990  32.4353330  28.9294750  54.7841380
  31.6742770  30.1354760  54.2759720  38.3588970  28.9876350  41.2677260
  38.3499070  29.7206040  40.6521770  37.4387330  28.7407930  41.3604220
  33.9595610  24.2091240  42.0124020  33.3523560  24.9490140  42.0219320
  34.4344960  24.2990600  41.1862220  43.5328400  18.3742060  51.6880910
  43.9009220  17.5537270  52.0160480  42.6726600  18.4343950  52.1036560
  46.8990430  17.3299000  42.4968470  46.2703590  17.4344670  41.7826700
  46.4042350  17.5495780  43.2862350  41.3448570  29.0504590  39.9302450
  41.4460550  28.8468580  39.0004430  40.4450310  28.7962870  40.1350230
  38.8674460  19.6084950  43.9126350  38.1590610  20.0771290  44.3539960
  39.1518940  18.9506960  44.5471540  40.4930390  21.0281650  51.9118880
  40.9915640  21.5027470  52.5770730  40.6353340  20.1045170  52.1188910
  42.8989890  16.3335610  45.3522140  42.7757670  16.3521740  44.4031650
  43.8474450  16.3814550  45.4720540  39.9866680  31.5690910  44.6250120
  40.2408180  31.5312300  43.7029490  39.0379160  31.4424240  44.6178370
  37.0709480  17.9170030  41.2877060  37.9200010  18.3540180  41.2217250
  36.7040750  18.2290290  42.1149120  47.6997250  17.2449610  52.7547270
  47.1970850  17.9855010  53.0941080  48.5153910  17.6333610  52.4384060
  45.9919260  22.4882790  46.2008630  45.0509400  22.5033020  46.3756320
  46.3063330  21.7018750  46.6468930  35.9700900  24.1702390  39.7612590
  36.7364170  24.0583750  40.3238020  36.0475590  23.4740360  39.1089360
  34.6647660  21.6027460  40.4445480  34.7451250  20.6554970  40.5562880
  35.5567410  21.9334340  40.5506140  47.9944840  29.6591640  47.8762890
  48.1192260  30.4822810  48.3486700  48.8610400  29.4482370  47.5287040
  35.4662370  31.7522850  47.5480020  36.2024850  31.2038310  47.8188590
  35.8503290  32.6178860  47.4086010  32.3507850  27.8196420  43.4221530
  31.4247630  28.0617560  43.4126940  32.8164280  28.6470680  43.3006280
  38.5764680  30.9253160  39.3705590  39.3693290  31.2141990  38.9187380
  38.0569030  30.4945330  38.6918070  44.7385650  30.7729080  55.2950420
  45.6907400  30.6887100  55.2450660  44.5913870  31.4370790  55.9684210
  47.6294850  30.1523290  40.7942330  47.3436360  29.7388430  39.9796510
  47.4314400  31.0811000  40.6742850  32.1918460  23.4242380  55.6801650
  32.6957480  22.8449660  56.2517880  31.4525880  23.7082610  56.2178020
  39.0942080  26.1456570  39.2347940  38.9892720  25.5308920  39.9609320
  38.9266300  25.6222460  38.4510950  39.2456400  24.8313370  55.2137170
  38.4802070  25.3998370  55.1291840  39.4272360  24.5389580  54.3205400
  42.3344810  25.2076600  39.8389930  41.7854910  25.6545900  40.4832670
  42.9564070  24.7025850  40.3627600  46.3879750  26.5618700  55.7712190
  47.1289220  26.8994460  55.2679650  45.6252430  26.7310760  55.2181960
  38.0019930  24.1667520  41.7355230  38.4236350  24.0007390  42.5786620
  38.1270770  23.3567750  41.2410370  36.1647350  20.1464070  54.5426210
  35.6343810  19.6555020  53.9149550  36.8335420  20.5748270  54.0084140
  45.0625410  24.6133530  54.3067400  45.4766430  24.7678610  55.1557820
  44.1276410  24.7388750  54.4693180  45.5347580  21.9529690  56.3106550
  46.1168350  21.1982010  56.2227030  45.7109350  22.4837130  55.5338030
  36.6519650  17.1126440  54.6223500  36.5576520  16.4947190  53.8974370
  36.0717040  17.8392730  54.3953410  39.4181090  15.6699680  51.6550890
  38.9698390  15.6923940  50.8096440  38.7846290  15.2718700  52.2521190
  39.8240640  24.5654010  52.2763330  40.2428750  25.4086740  52.1039570
  38.9049270  24.7026050  52.0470110  42.1604540  22.2970190  53.6601170
  42.2800750  21.7011330  54.3996010  43.0198540  22.3339880  53.2402470
  44.4992440  22.8507380  52.2363680  43.9727660  23.3750000  51.6328820
  44.8423780  23.4834770  52.8673410  36.8978830  20.2400750  38.6813390
  36.6967890  19.3768110  39.0426730  36.7270880  20.1534110  37.7434990
  37.6748060  30.8707020  53.3921060  37.1369150  31.5953080  53.0729760
  37.9282020  30.3937360  52.6018400  38.9273310  18.8391540  54.9176990
  39.5173000  18.5307390  55.6054810  38.1093550  18.3671290  55.0736890
  43.7466740  18.4557350  55.1510010  43.0582260  17.7938890  55.0860000
  44.4672760  18.0095620  55.5958470  44.3767140  15.0508980  41.2100270
  44.6569430  14.2076880  41.5659690  43.6032870  15.2832090  41.7239020
  35.6961630  17.3401370  38.6691270  35.9987530  17.3468800  37.7610420
  36.4356220  16.9899230  39.1658930  40.5310270  32.1058230  53.6507710
  40.4568970  33.0093370  53.9580080  39.6289110  31.7870130  53.6229780
  38.9146560  16.2835990  39.6547470  38.5668560  15.6059980  39.0749920
  39.1159330  15.8225500  40.4690860  41.0795600  31.2716740  41.2734070
  41.9746390  31.6101710  41.2952830  41.1113230  30.5496150  40.6458350
  34.7191760  26.6443790  39.5021070  35.1566630  27.1873460  40.1578650
  35.2039490  25.8190740  39.5117410  31.9337560  29.4332820  46.9541330
  32.2640570  28.5653880  46.7219970  32.3628560  29.6391340  47.7846290
  36.5299480  27.7641830  44.6143300  36.2295020  27.6406800  45.5147210
  36.4236970  26.9050420  44.2059030  32.4227770  30.3003410  49.6922960
  31.9858760  30.4804210  50.5247110  32.9905450  31.0578030  49.5504680
  48.0589950  29.8020410  53.9800270  47.4591940  29.8612970  53.2364190
  48.1883850  28.8625390  54.1097120  49.2991400  27.5438230  39.3169980
  48.4684360  27.6114880  39.7877210  49.4763230  28.4342350  39.0136840
  48.7547860  24.2885710  41.8204180  49.5166770  24.8582360  41.9263870
  48.7702230  23.7212910  42.5912490  32.2552200  22.8123640  46.0511840
  31.6001040  22.5435280  45.4071540  33.0930150  22.7028120  45.6013820
  49.7607830  25.1435810  46.6646110  50.1316660  24.3603130  46.2582080
  50.4009760  25.8324910  46.4863410  46.7441590  26.5272390  52.0776430
  45.9301430  26.9569550  52.3402220  47.1515790  27.1390800  51.4645480
  48.8067030  24.5820080  38.9776700  49.0815870  25.4898960  38.8495920
  48.6177770  24.5182610  39.9138690  45.2042640  17.6064930  40.2730330
  45.6227520  17.4195910  39.4326990  44.8978700  16.7543980  40.5833260
  48.7032370  22.5189070  43.9706130  48.3275970  21.7517000  43.5387420
  47.9735490  22.9011770  44.4581060  33.2928130  23.1976210  50.5915180
  33.6601170  23.1103610  51.4711200  32.7238950  22.4342760  50.4922040
  48.0931990  21.6660590  53.6045650  47.8618080  21.4373340  52.7043600
  48.3536540  22.5860140  53.5590540  32.8444130  20.1085300  54.4973600
  31.9500180  20.0752060  54.8367310  33.3841680  20.3072090  55.2624850
  46.5320060  16.8917020  56.3825350  47.4090240  16.9000420  56.7659350
  46.5440900  16.1547860  55.7717700  31.4690280  20.0222570  41.9937170
  30.5654360  20.2852770  41.8188830  31.9530900  20.2933740  41.2137130
  47.9783330  20.7446560  47.2713370  48.5020810  20.2509210  46.6403540
  48.5642750  20.8796920  48.0160940  48.1573050  20.8286430  50.7932920
  47.2075760  20.7949970  50.9077910  48.3386060  21.7386540  50.5582690
  34.0117490  19.0788110  39.9031550  34.7209190  18.6571330  39.4178830
  33.2957430  19.1463340  39.2714900  33.6591650  15.1327440  38.9434200
  34.3819780  15.6736380  39.2615420  33.9316170  14.8590860  38.0675740
  47.4683300  20.0019910  43.2105780  47.9642420  19.7690780  43.9954660
  47.2699370  19.1631750  42.7943420  33.3483840  14.3833630  48.8456820
  33.9960030  13.8331010  48.4051980  33.7685680  14.6376780  49.6672630
  48.8970460  18.6380860  45.7443460  48.7869740  18.4836900  46.6825730
  49.6578050  18.1101800  45.5018870  47.2436180  14.5774990  52.2026460
  47.8808400  15.1909130  52.5685650  47.3911070  14.6135650  51.2575690
  49.7860730  16.4688780  38.9849600  50.7110040  16.3369960  38.7767890
  49.7636520  16.5481600  39.9386050  49.8599220  17.2399440  41.6106310
  49.0650720  17.1744560  42.1399220  50.0642500  18.1750080  41.5991660
  46.8017640  31.2790990  45.6044700  47.3976710  30.9575560  44.9279120
  47.0595790  30.8062810  46.3957970  33.1015840  14.5389300  51.5882140
  32.7530660  14.9953120  52.3540320  32.7703540  13.6446430  51.6704570
  34.7080210  27.7108900  55.7535330  34.6649840  27.3401810  56.6349790
  34.8391220  28.6486470  55.8937150  38.4086240  29.2668490  51.3545050
  38.1677600  29.5343050  50.4675570  39.3488880  29.4374220  51.4095910
  40.6140660  15.7301180  55.1101560  40.5529550  16.3223010  55.8596970
  41.5541040  15.6227140  54.9651820  43.2515220  15.3871240  54.7493850
  43.8655630  15.7050530  54.0874930  43.7964780  14.9019830  55.3689710
  49.6690400  31.2862870  52.1555690  49.1748680  31.6831740  51.4382820
  49.0603690  30.6612080  52.5492970  33.7736480  14.0665500  54.8632910
  34.3219470  13.8853550  54.0999020  33.8391790  13.2759610  55.3989220
  34.5468240  30.6571150  52.8733110  33.9528560  30.5255850  53.6123150
  34.5392080  29.8209290  52.4075210  43.9923260  13.9503380  51.0763140
  43.1183100  14.2838490  50.8736070  43.8834010  13.4776560  51.9015010
  44.8995240  16.1574250  52.4604860  44.5708600  15.3426010  52.0806590
  45.8477540  16.1144060  52.3370550  47.3529850  31.9286290  49.4342430
  46.8932820  32.6802100  49.0600450  46.7242310  31.2092760  49.3757230
  34.1780470  28.0229530  51.8241150  33.4514530  27.4034820  51.7567100
  34.2389620  28.4170140  50.9539230  37.7825570  30.2374530  48.6090560
  38.2990590  29.6261890  48.0838820  38.4322950  30.7403310  49.1001570
  40.5221070  31.1283020  49.4359540  40.8098880  30.8737320  48.5592550
  41.0344290  30.5760380  50.0265110  41.7398080  14.8673220  50.0156050
  40.9569870  15.3418720  50.2952810  41.4461010  13.9628050  49.9069230
  46.2919150  15.5696320  48.0605140  46.7327240  15.5141420  47.2126740
  46.0226740  16.4854330  48.1315320  48.1557720  15.2011560  46.0713960
  48.0946120  14.2572780  45.9244980  48.9349750  15.3091650  46.6167420
  32.4610470  31.3403920  45.0337910  32.2932510  30.7074600  45.7319800
  31.5944980  31.5463320  44.6832100  33.0838490  15.1720700  42.5369770
  33.8417850  15.2849580  41.9633800  32.6215660  16.0089900  42.4913200
  39.6252300  17.2859970  45.5272080  38.8126810  16.9116860  45.1867960
  40.1293940  16.5305050  45.8293270  44.1277280  13.9502420  46.7655150
  44.7306650  14.5222630  47.2403670  43.3870270  14.5141860  46.5429050
  47.2711880  14.3523980  42.0395430  47.4662510  15.2507430  42.3062860
  46.4841750  14.1211060  42.5328380  34.0673170  30.0337150  42.4788050
  33.5420790  30.4145180  41.7750010  33.9917750  30.6587920  43.1997760
  35.4563640  15.6984750  41.0771740  35.9856400  14.9114550  40.9479690
  36.0891960  16.3775940  41.3107270  37.6501480  15.4359890  44.1317130
  37.0204220  14.7347200  44.2987260  37.1106620  16.1964020  43.9150290
  48.8238490  31.5924690  43.8001990  48.9990680  30.9062430  43.1562910
  48.1260060  32.1171740  43.4078660  37.7757040  14.7143870  56.5669620
  37.4941310  15.2177470  55.8030440  38.1576740  13.9165620  56.2011750
  36.6666140  31.9819530  41.3537300  37.3984960  31.6978810  40.8061190
  36.9259810  31.7432810  42.2436680  35.8280930  28.0984260  41.3583630
  35.1989810  28.5669360  41.9069460  35.9428760  27.2533480  41.7929820
  43.2830650  22.1489920  27.5084830  43.2024700  21.2344530  27.2376540
  42.8695070  22.6456990  26.8024540  41.4148690  23.9268940  29.3894100
  40.6390790  23.4469380  29.6792670  42.0661620  23.2474590  29.2150260
  45.4356120  28.3329130  28.1693230  44.9737650  27.5616370  28.4980400
  46.2481670  28.3595200  28.6745680  33.8406470  19.1990640  24.0512250
  32.9523170  19.5406610  23.9492130  34.1247660  18.9990960  23.1593080
  31.8039480  21.7996290  29.9351950  32.3755590  21.0318490  29.9355590
  31.8041020  22.0985050  29.0258560  41.6619430  30.6187140  27.7897220
  41.0430870  31.0744640  27.2191660  42.5171210  30.7738600  27.3886920
  40.8557680  26.6026130  29.3964260  40.7865960  25.6616070  29.2353390
  41.6177540  26.6927540  29.9686830  33.0464350  17.2080650  31.7220880
  32.8667190  16.3106400  32.0023640  32.6444430  17.7552520  32.3967830
  36.0167860  17.7822140  25.0850630  36.1234610  18.6825870  25.3919390
  35.1060220  17.7340110  24.7945280  45.6686970  16.9046950  26.5561530
  46.4896590  16.4143520  26.5987010  45.7021050  17.4944610  27.3093370
  33.6651020  19.7041150  30.3303220  34.3461130  19.9679520  30.9490620
  33.3499070  18.8642020  30.6641230  37.8575590  20.7508510  29.4175810
  38.3653810  21.2489480  30.0580830  38.3888830  19.9743710  29.2415170
  49.9586520  18.9213700  33.1205160  49.2538690  19.3095410  32.6020270
  50.2244440  19.6163990  33.7226090  36.1411690  15.3907070  33.6839230
  36.1430130  15.9079460  32.8785130  35.3116000  14.9137250  33.6609160
  42.5282780  25.5026380  25.1829130  41.9100050  25.9675830  24.6191850
  43.0406030  26.1953860  25.5998640  45.9048450  18.8447330  29.3289070
  45.2004020  19.1332220  29.9092180  46.2660610  19.6547440  28.9688630
  35.8227020  17.1017030  31.6909680  36.1643830  17.9459080  31.3963550
  34.8842830  17.2500770  31.8075020  47.5211230  28.4622460  31.5916550
  46.8374750  29.1321570  31.5833220  48.0605520  28.6603110  30.8261410
  48.9735370  18.2902120  29.7198280  48.0260280  18.3241100  29.8513710
  49.2985360  19.1041070  30.1047640  39.5054910  14.5899300  28.0154270
  39.8129890  14.0346190  27.2989770  38.5755610  14.7243760  27.8327260
  45.0569970  30.3066590  30.3061730  45.0697130  29.9028880  29.4383990
  44.5045190  31.0813880  30.2023160  46.3515390  27.0282810  25.3951900
  46.2411720  26.0857140  25.5201320  46.3483640  27.3898450  26.2814660
  44.4555410  25.2096430  31.6344340  44.8724200  24.9956540  30.7997800
  45.1795230  25.4669220  32.2052960  41.8935670  22.6548130  24.7514390
  40.9664950  22.5885510  24.9802860  42.0460490  23.5928260  24.6369630
  41.8804750  18.9265130  21.7481550  40.9408420  19.0879090  21.8334010
  42.1988010  19.6450810  21.2017540  48.4017510  23.6083650  31.7260580
  47.5736140  23.6776740  31.2510710  48.9967990  24.1937960  31.2576410
  45.9232960  24.2168430  25.2549640  45.3045380  23.8787980  24.6075940
  45.9057410  23.5728190  25.9628830  45.3659520  20.3952970  32.6715450
  44.9530700  21.2206680  32.9255440  44.6335470  19.8098010  32.4791810
  37.4992310  23.1812870  27.5334120  37.0949310  22.4690120  27.0380020
  37.5855430  22.8366110  28.4222160  36.2120930  19.9556080  31.3133160
  36.7635520  20.0651420  30.5386410  36.7264440  20.3293680  32.0288390
  46.0559620  30.4412300  33.3596430  45.5790180  31.2484490  33.1669040
  45.3721410  29.7890630  33.5122640  37.0592440  26.6062120  36.3481130
  36.1620970  26.8302090  36.5954530  37.0845310  26.7297060  35.3992530
  44.0997660  23.4555240  22.2622390  44.5390940  22.6177670  22.1160210
  44.8126080  24.0884640  22.3486530  35.8863660  23.4775440  34.9238500
  35.7471430  24.3498240  35.2925900  35.0045020  23.1348250  34.7786440
  42.2093040  28.3951310  26.2303630  42.6488950  29.1375640  25.8159020
  42.1479930  28.6377880  27.1542590  37.6844010  29.4197140  37.1323650
  37.6559440  29.8240090  36.2652080  37.5208980  28.4907500  36.9695250
  47.6814800  14.7098050  20.5763430  47.3687460  14.8024880  21.4762500
  48.4427270  15.2879080  20.5260860  34.1996940  22.0757850  25.0340770
  34.0794540  22.8019940  24.4222040  33.8897830  21.3060760  24.5568680
  49.6358830  30.2024240  38.4287820  50.1118550  30.6807130  39.1076900
  50.2565990  30.1341730  37.7033320  31.8382310  25.2472990  30.8409410
  31.9162730  25.3821760  29.8965130  32.4523990  24.5388880  31.0337530
  49.0392080  27.3937090  35.5887830  49.1655140  27.1548970  34.6705010
  49.0813460  26.5621630  36.0609910  42.9008820  31.0965090  34.1582640
  43.4153490  31.0073100  34.9605070  42.0577900  31.4424790  34.4510550
  44.8763220  31.3820430  23.5866640  44.7164360  31.0923370  24.4848470
  44.7109930  30.6060560  23.0511870  44.5789350  28.8907990  22.1464640
  43.8854510  28.8885280  21.4866920  45.3212210  28.4667310  21.7158810
  48.8916090  19.4469550  36.5537570  48.2760360  19.9549220  36.0253030
  48.5712510  18.5467880  36.4963510  31.8941830  26.2887160  33.3803870
  32.0572870  25.8192520  32.5623240  32.3594280  25.7810720  34.0452710
  36.6660600  15.4192920  28.4164440  36.2228750  16.2002460  28.0848960
  37.2245590  15.7422810  29.1235380  40.9530410  18.2861440  34.0199760
  40.4909780  18.4944460  34.8319700  40.5508520  17.4720790  33.7170430
  45.9534920  19.5070390  35.1496420  45.1028510  19.2076140  35.4705490
  45.7936710  19.7512400  34.2380240  43.0484630  21.0072140  37.2495210
  43.3738040  20.1735890  36.9097440  43.8364960  21.5300660  37.3973540
  39.7819420  15.0403620  23.2970270  39.1573600  15.0363490  24.0223580
  39.6949540  14.1734580  22.9006240  38.7036500  15.9640250  30.2754040
  39.0008830  16.8703080  30.1946060  39.2522060  15.4759030  29.6613610
  36.4574820  20.5426490  26.1445690  36.2315740  20.3263660  27.0492310
  35.6767350  20.9754950  25.7991660  43.6872580  20.5489860  24.7436340
  43.0881470  21.2725660  24.5599960  44.2352190  20.4866640  23.9612790
  38.8974030  21.4412070  36.8105960  38.8017630  20.5006800  36.6606360
  39.7406010  21.6627140  36.4154030  42.2937450  19.1853400  26.7739620
  42.6867020  19.5025600  25.9608310  42.6554300  18.3065280  26.8884140
  34.0284570  17.8525740  34.9639740  33.6347960  18.7000950  35.1712520
  33.3402970  17.2152110  35.1548380  40.6029620  17.9360710  38.0336480
  39.9127940  17.7432910  38.6682570  41.3461920  18.2195350  38.5660780
  31.3301620  15.7754200  28.9969820  31.0414670  16.3457060  29.7094800
  32.0747380  15.2958650  29.3601050  31.5171850  19.7174320  20.2072540
  31.4346520  20.6605080  20.3487530  31.1654910  19.5749230  19.3284890
  42.8792590  21.7759150  30.8690400  42.1473710  22.2845960  31.2180500
  42.4816930  20.9589130  30.5679180  39.3169980  18.4513350  29.2742890
  39.3206040  18.0103300  28.4247430  40.2121100  18.7730680  29.3814710
  35.1672360  18.3339840  28.2337100  34.8272410  18.8115070  28.9904150
  34.4049680  17.8804960  27.8738200  39.3790130  19.4525430  22.2649650
  39.5002950  19.4111910  23.2135470  38.9938640  20.3149580  22.1096380
  43.3418500  17.2292830  30.2813340  43.3591240  17.6801480  31.1255190
  43.0934080  16.3298470  30.4946780  38.3911630  21.7626570  21.6632950
  37.8228530  21.3144820  21.0368860  39.1000630  22.1219350  21.1298100
  46.7689250  14.6425010  36.1199720  47.0935020  13.9114670  36.6457700
  46.8045760  14.3238650  35.2180710  33.4680810  25.6638590  35.5399680
  33.0835600  25.0232260  36.1382640  33.7793000  26.3674710  36.1094410
  39.6177950  22.5115130  31.0208300  39.9848080  22.0373700  31.7669640
  39.4283010  23.3856700  31.3616640  37.4077320  21.5523770  33.3392510
  37.1034390  22.4315750  33.5642870  38.3623780  21.6123560  33.3749950
  46.6947090  24.7550120  29.7285750  47.4146210  25.2505410  29.3381860
  46.4928910  24.0768010  29.0839620  42.1557030  16.1488080  23.8715140
  41.3421640  15.6501250  23.7960450  41.9618980  16.9886330  23.4551490
  42.0765890  24.8259180  35.6154750  42.0103200  23.9054850  35.3612340
  41.4471030  24.9234620  36.3299390  44.8705420  20.5207730  22.1677300
  45.7585040  20.8324960  21.9928640  44.8410510  19.6479980  21.7757880
  40.8666010  26.6931420  22.8465470  41.2081710  27.4373650  22.3508790
  40.0378720  27.0062540  23.2090300  33.4641050  22.3926510  34.4863870
  33.1055990  23.0580360  35.0737210  33.1695610  21.5610060  34.8576490
  36.6654170  22.8510750  37.3703420  36.3654310  22.9967930  36.4731240
  37.4365410  22.2916040  37.2776810  42.0082620  27.6479750  35.3658550
  42.0227160  26.7160710  35.1477460  41.3007720  27.7339510  36.0048320
  47.1419690  21.8319570  21.6357160  47.0583410  22.2633790  20.7853600
  47.8613880  22.2917920  22.0683980  48.2193830  24.2887090  34.7127130
  47.4942020  24.8815870  34.5156520  48.7469290  24.2810630  33.9140500
  48.1706940  28.6861830  24.3639290  47.5283100  28.0317450  24.6383010
  47.7837600  29.0916920  23.5879960  43.7493420  26.0147260  28.2110980
  44.1017240  25.4175390  27.5512350  42.8655750  25.6891490  28.3819230
  39.8356700  26.7744950  25.6181390  40.5227830  27.3214160  25.9988980
  39.0489120  27.3185680  25.6531000  31.9749100  22.3917770  21.1098470
  32.8443950  22.6742570  21.3934390  31.4839420  23.2053640  20.9947280
  39.1383910  23.7790980  25.2306750  39.5946690  24.5896230  25.4566940
  38.7872120  23.4614120  26.0625240  41.4416520  29.2897320  32.4599050
  42.0858740  29.4956700  33.1372470  41.8045960  28.5285720  32.0069900
  35.0395690  14.1228630  25.7029270  34.9110320  14.1146530  26.6514190
  34.2157710  14.4611720  25.3520280  42.7148600  27.2929670  31.1776500
  43.3570830  26.5922830  31.2908670  43.2397950  28.0728110  30.9973390
  46.5604320  27.5778290  20.9015640  46.3341900  26.8608730  21.4940280
  46.1700520  27.3290730  20.0637390  32.3420350  31.6045150  21.6760100
  32.7017990  32.2034490  21.0217370  32.2012690  32.1505040  22.4495130
  32.0389620  15.8819750  35.1635970  31.3248140  16.0816670  35.7688580
  32.4584660  15.1059320  35.5350770  46.1420570  25.4950230  22.5629800
  45.8542270  25.9562920  23.3507680  46.9372740  25.0348000  22.8314020
  32.3262210  29.8700010  36.1502500  32.4353330  28.9294750  36.0097890
  31.6742770  30.1354760  35.5016230  40.3174800  28.1415900  37.5500620
  39.9971670  27.4225140  38.0946310  39.6433160  28.8170970  37.6236680
  38.3588970  28.9876350  22.4933770  38.3499070  29.7206040  21.8778280
  37.4387330  28.7407930  22.5860730  33.9595610  24.2091240  23.2380530
  33.3523560  24.9490140  23.2475830  34.4344960  24.2990600  22.4118730
  43.5328400  18.3742060  32.9137420  43.9009220  17.5537270  33.2416990
  42.6726600  18.4343950  33.3293070  46.8990430  17.3299000  23.7224980
  46.2703590  17.4344670  23.0083210  46.4042350  17.5495780  24.5118860
  41.3448570  29.0504590  21.1558960  41.4460550  28.8468580  20.2260940
  40.4450310  28.7962870  21.3606740  38.8674460  19.6084950  25.1382860
  38.1590610  20.0771290  25.5796470  39.1518940  18.9506960  25.7728050
  40.4930390  21.0281650  33.1375390  40.9915640  21.5027470  33.8027240
  40.6353340  20.1045170  33.3445420  42.8989890  16.3335610  26.5778650
  42.7757670  16.3521740  25.6288160  43.8474450  16.3814550  26.6977050
  37.0709480  17.9170030  22.5133570  37.9200010  18.3540180  22.4473760
  36.7040750  18.2290290  23.3405630  47.6997250  17.2449610  33.9803780
  47.1970850  17.9855010  34.3197590  48.5153910  17.6333610  33.6640570
  45.9919260  22.4882790  27.4265140  45.0509400  22.5033020  27.6012830
  46.3063330  21.7018750  27.8725440  35.9700900  24.1702390  20.9869100
  36.7364170  24.0583750  21.5494530  36.0475590  23.4740360  20.3345870
  34.6647660  21.6027460  21.6701990  34.7451250  20.6554970  21.7819390
  35.5567410  21.9334340  21.7762650  47.9944840  29.6591640  29.1019400
  48.1192260  30.4822810  29.5743210  48.8610400  29.4482370  28.7543550
  34.4720650  30.9368920  37.9622110  35.2733380  31.2580970  38.3757510
  33.9572470  30.5764500  38.6842020  38.5764680  30.9253160  20.5962100
  39.3693290  31.2141990  20.1443890  38.0569030  30.4945330  19.9174580
  43.3085280  27.0448790  37.9097520  42.7023440  27.0680390  37.1693270
  43.0039390  26.3131830  38.4464770  44.7385650  30.7729080  36.5206930
  45.6907400  30.6887100  36.4707170  44.5913870  31.4370790  37.1940720
  47.6294850  30.1523290  22.0198840  47.3436360  29.7388430  21.2053020
  47.4314400  31.0811000  21.8999360  32.1918460  23.4242380  36.9058160
  32.6957480  22.8449660  37.4774390  31.4525880  23.7082610  37.4434530
  39.0942080  26.1456570  20.4604450  38.9892720  25.5308920  21.1865830
  38.9266300  25.6222460  19.6767460  39.2456400  24.8313370  36.4393680
  38.4802070  25.3998370  36.3548350  39.4272360  24.5389580  35.5461910
  42.3344810  25.2076600  21.0646440  41.7854910  25.6545900  21.7089180
  42.9564070  24.7025850  21.5884110  46.3879750  26.5618700  36.9968700
  47.1289220  26.8994460  36.4936160  45.6252430  26.7310760  36.4438470
  34.2241540  21.5671970  37.8008230  34.2646880  21.2685840  38.7093460
  35.0787040  21.9679580  37.6415750  38.0019930  24.1667520  22.9611740
  38.4236350  24.0007390  23.8043130  38.1270770  23.3567750  22.4666880
  36.1647350  20.1464070  35.7682720  35.6343810  19.6555020  35.1406060
  36.8335420  20.5748270  35.2340650  45.0625410  24.6133530  35.5323910
  45.4766430  24.7678610  36.3814330  44.1276410  24.7388750  35.6949690
  45.5347580  21.9529690  37.5363060  46.1168350  21.1982010  37.4483540
  45.7109350  22.4837130  36.7594540  39.4181090  15.6699680  32.8807400
  38.9698390  15.6923940  32.0352950  38.7846290  15.2718700  33.4777700
  39.8240640  24.5654010  33.5019840  40.2428750  25.4086740  33.3296080
  38.9049270  24.7026050  33.2726620  42.1604540  22.2970190  34.8857680
  42.2800750  21.7011330  35.6252520  43.0198540  22.3339880  34.4658980
  44.4992440  22.8507380  33.4620190  43.9727660  23.3750000  32.8585330
  44.8423780  23.4834770  34.0929920  36.8978830  20.2400750  19.9069900
  36.6967890  19.3768110  20.2683240  36.7270880  20.1534110  18.9691500
  37.6748060  30.8707020  34.6177570  37.1369150  31.5953080  34.2986270
  37.9282020  30.3937360  33.8274910  38.9273310  18.8391540  36.1433500
  39.5173000  18.5307390  36.8311320  38.1093550  18.3671290  36.2993400
  43.7466740  18.4557350  36.3766520  43.0582260  17.7938890  36.3116510
  44.4672760  18.0095620  36.8214980  44.3767140  15.0508980  22.4356780
  44.6569430  14.2076880  22.7916200  43.6032870  15.2832090  22.9495530
  35.6961630  17.3401370  19.8947780  35.9987530  17.3468800  18.9866930
  36.4356220  16.9899230  20.3915440  40.5310270  32.1058230  34.8764220
  40.4568970  33.0093370  35.1836590  39.6289110  31.7870130  34.8486290
  38.9146560  16.2835990  20.8803980  38.5668560  15.6059980  20.3006430
  39.1159330  15.8225500  21.6947370  41.0795600  31.2716740  22.4990580
  41.9746390  31.6101710  22.5209340  41.1113230  30.5496150  21.8714860
  48.0589950  29.8020410  35.2056780  47.4591940  29.8612970  34.4620700
  48.1883850  28.8625390  35.3353630  49.2991400  27.5438230  20.5426490
  48.4684360  27.6114880  21.0133720  49.4763230  28.4342350  20.2393350
  48.7547860  24.2885710  23.0460690  49.5166770  24.8582360  23.1520380
  48.7702230  23.7212910  23.8169000  32.2552200  22.8123640  27.2768350
  31.6001040  22.5435280  26.6328050  33.0930150  22.7028120  26.8270330
  49.7607830  25.1435810  27.8902620  50.1316660  24.3603130  27.4838590
  50.4009760  25.8324910  27.7119920  46.7441590  26.5272390  33.3032940
  45.9301430  26.9569550  33.5658730  47.1515790  27.1390800  32.6901990
  48.8067030  24.5820080  20.2033210  49.0815870  25.4898960  20.0752430
  48.6177770  24.5182610  21.1395200  45.2042640  17.6064930  21.4986840
  45.6227520  17.4195910  20.6583500  44.8978700  16.7543980  21.8089770
  48.7032370  22.5189070  25.1962640  48.3275970  21.7517000  24.7643930
  47.9735490  22.9011770  25.6837570  33.2928130  23.1976210  31.8171690
  33.6601170  23.1103610  32.6967710  32.7238950  22.4342760  31.7178550
  48.0931990  21.6660590  34.8302160  47.8618080  21.4373340  33.9300110
  48.3536540  22.5860140  34.7847050  32.8444130  20.1085300  35.7230110
  31.9500180  20.0752060  36.0623820  33.3841680  20.3072090  36.4881360
  46.5320060  16.8917020  37.6081860  47.4090240  16.9000420  37.9915860
  46.5440900  16.1547860  36.9974210  31.4690280  20.0222570  23.2193680
  30.5654360  20.2852770  23.0445340  31.9530900  20.2933740  22.4393640
  47.9783330  20.7446560  28.4969880  48.5020810  20.2509210  27.8660050
  48.5642750  20.8796920  29.2417450  48.1573050  20.8286430  32.0189430
  47.2075760  20.7949970  32.1334420  48.3386060  21.7386540  31.7839200
  34.0117490  19.0788110  21.1288060  34.7209190  18.6571330  20.6435340
  33.2957430  19.1463340  20.4971410  33.6591650  15.1327440  20.1690710
  34.3819780  15.6736380  20.4871930  33.9316170  14.8590860  19.2932250
  47.4683300  20.0019910  24.4362290  47.9642420  19.7690780  25.2211170
  47.2699370  19.1631750  24.0199930  33.3483840  14.3833630  30.0713330
  33.9960030  13.8331010  29.6308490  33.7685680  14.6376780  30.8929140
  48.8970460  18.6380860  26.9699970  48.7869740  18.4836900  27.9082240
  49.6578050  18.1101800  26.7275380  47.2436180  14.5774990  33.4282970
  47.8808400  15.1909130  33.7942160  47.3911070  14.6135650  32.4832200
  49.7860730  16.4688780  20.2106110  50.7110040  16.3369960  20.0024400
  49.7636520  16.5481600  21.1642560  49.8599220  17.2399440  22.8362820
  49.0650720  17.1744560  23.3655730  50.0642500  18.1750080  22.8248170
  46.8017640  31.2790990  26.8301210  47.3976710  30.9575560  26.1535630
  47.0595790  30.8062810  27.6214480  33.1015840  14.5389300  32.8138650
  32.7530660  14.9953120  33.5796830  32.7703540  13.6446430  32.8961080
  34.7080210  27.7108900  36.9791840  34.6649840  27.3401810  37.8606300
  34.8391220  28.6486470  37.1193660  40.6140660  15.7301180  36.3358070
  40.5529550  16.3223010  37.0853480  41.5541040  15.6227140  36.1908330
  43.2515220  15.3871240  35.9750360  43.8655630  15.7050530  35.3131440
  43.7964780  14.9019830  36.5946220  49.6690400  31.2862870  33.3812200
  49.1748680  31.6831740  32.6639330  49.0603690  30.6612080  33.7749480
  33.7736480  14.0665500  36.0889420  34.3219470  13.8853550  35.3255530
  33.8391790  13.2759610  36.6245730  43.9923260  13.9503380  32.3019650
  43.1183100  14.2838490  32.0992580  43.8834010  13.4776560  33.1271520
  44.8995240  16.1574250  33.6861370  44.5708600  15.3426010  33.3063100
  45.8477540  16.1144060  33.5627060  47.3529850  31.9286290  30.6598940
  46.8932820  32.6802100  30.2856960  46.7242310  31.2092760  30.6013740
  40.5221070  31.1283020  30.6616050  40.8098880  30.8737320  29.7849060
  41.0344290  30.5760380  31.2521620  41.7398080  14.8673220  31.2412560
  40.9569870  15.3418720  31.5209320  41.4461010  13.9628050  31.1325740
  46.2919150  15.5696320  29.2861650  46.7327240  15.5141420  28.4383250
  46.0226740  16.4854330  29.3571830  48.1557720  15.2011560  27.2970470
  48.0946120  14.2572780  27.1501490  48.9349750  15.3091650  27.8423930
  33.0838490  15.1720700  23.7626280  33.8417850  15.2849580  23.1890310
  32.6215660  16.0089900  23.7169710  39.6252300  17.2859970  26.7528590
  38.8126810  16.9116860  26.4124470  40.1293940  16.5305050  27.0549780
  44.1277280  13.9502420  27.9911660  44.7306650  14.5222630  28.4660180
  43.3870270  14.5141860  27.7685560  47.2711880  14.3523980  23.2651940
  47.4662510  15.2507430  23.5319370  46.4841750  14.1211060  23.7584890
  35.4563640  15.6984750  22.3028250  35.9856400  14.9114550  22.1736200
  36.0891960  16.3775940  22.5363780  37.6501480  15.4359890  25.3573640
  37.0204220  14.7347200  25.5243770  37.1106620  16.1964020  25.1406800
  40.5893430  32.0499120  38.0284250  41.5160740  31.8143390  38.0720210
  40.5743860  32.8771120  37.5470280  48.8238490  31.5924690  25.0258500
  48.9990680  30.9062430  24.3819420  48.1260060  32.1171740  24.6335170
  37.7757040  14.7143870  37.7926130  37.4941310  15.2177470  37.0286950
  38.1576740  13.9165620  37.4268260  36.6666140  31.9819530  22.5793810
  37.3984960  31.6978810  22.0317700  36.9259810  31.7432810  23.4693190
  44.3772500  14.1297450  38.3706600  44.2637950  14.4492060  39.2658120
  45.1942240  14.5309960  38.0743880  47.1570990  31.2768980  37.8525290
  47.9496310  30.7818210  37.6451250  47.4504140  31.9559120  38.4600900
  43.2830650  22.1489920   8.7341340  43.2024700  21.2344530   8.4633050
  42.8695070  22.6456990   8.0281050  41.4148690  23.9268940  10.6150610
  40.6390790  23.4469380  10.9049180  42.0661620  23.2474590  10.4406770
  35.4314520  24.2388750  11.4926370  34.5999400  23.9837460  11.8922880
  36.0395500  24.3099520  12.2284290  45.4356120  28.3329130   9.3949740
  44.9737650  27.5616370   9.7236910  46.2481670  28.3595200   9.9002190
  35.4115780  28.2728840  11.6884390  35.7143820  27.3826580  11.5094610
  36.1559370  28.8299060  11.4606640  33.8406470  19.1990640   5.2768760
  32.9523170  19.5406610   5.1748640  34.1247660  18.9990960   4.3849590
  31.8039480  21.7996290  11.1608460  32.3755590  21.0318490  11.1612100
  31.8041020  22.0985050  10.2515070  41.6619430  30.6187140   9.0153730
  41.0430870  31.0744640   8.4448170  42.5171210  30.7738600   8.6143430
  40.8557680  26.6026130  10.6220770  40.7865960  25.6616070  10.4609900
  41.6177540  26.6927540  11.1943340  33.0464350  17.2080650  12.9477390
  32.8667190  16.3106400  13.2280150  32.6444430  17.7552520  13.6224340
  41.8862850  19.4096510  10.8489700  42.2627670  18.5368390  10.7363370
  41.7882360  19.7455210   9.9580140  36.0167860  17.7822140   6.3107140
  36.1234610  18.6825870   6.6175900  35.1060220  17.7340110   6.0201790
  45.6686970  16.9046950   7.7818040  46.4896590  16.4143520   7.8243520
  45.7021050  17.4944610   8.5349880  33.6651020  19.7041150  11.5559730
  34.3461130  19.9679520  12.1747130  33.3499070  18.8642020  11.8897740
  37.8575590  20.7508510  10.6432320  38.3653810  21.2489480  11.2837340
  38.3888830  19.9743710  10.4671680  49.9586520  18.9213700  14.3461670
  49.2538690  19.3095410  13.8276780  50.2244440  19.6163990  14.9482600
  36.1411690  15.3907070  14.9095740  36.1430130  15.9079460  14.1041640
  35.3116000  14.9137250  14.8865670  42.5282780  25.5026380   6.4085640
  41.9100050  25.9675830   5.8448360  43.0406030  26.1953860   6.8255150
  37.3914540  25.0302250  13.0869240  37.0583920  25.6571170  13.7290310
  37.5681220  25.5564130  12.3070910  45.9048450  18.8447330  10.5545580
  45.2004020  19.1332220  11.1348690  46.2660610  19.6547440  10.1945140
  35.8227020  17.1017030  12.9166190  36.1643830  17.9459080  12.6220060
  34.8842830  17.2500770  13.0331530  36.6033640  26.9983050  14.9018420
  37.2207640  27.6734130  14.6202870  35.7426760  27.4071030  14.8105920
  31.8965980  26.1882910   3.7825270  31.5193960  26.6770010   3.0510170
  32.1539050  26.8608190   4.4131800  47.5211230  28.4622460  12.8173060
  46.8374750  29.1321570  12.8089730  48.0605520  28.6603110  12.0517920
  48.9735370  18.2902120  10.9454790  48.0260280  18.3241100  11.0770220
  49.2985360  19.1041070  11.3304150  39.5054910  14.5899300   9.2410780
  39.8129890  14.0346190   8.5246280  38.5755610  14.7243760   9.0583770
  45.0569970  30.3066590  11.5318240  45.0697130  29.9028880  10.6640500
  44.5045190  31.0813880  11.4279670  46.3515390  27.0282810   6.6208410
  46.2411720  26.0857140   6.7457830  46.3483640  27.3898450   7.5071170
  44.4555410  25.2096430  12.8600850  44.8724200  24.9956540  12.0254310
  45.1795230  25.4669220  13.4309470  41.8935670  22.6548130   5.9770900
  40.9664950  22.5885510   6.2059370  42.0460490  23.5928260   5.8626140
  41.8804750  18.9265130   2.9738060  40.9408420  19.0879090   3.0590520
  42.1988010  19.6450810   2.4274050  48.4017510  23.6083650  12.9517090
  47.5736140  23.6776740  12.4767220  48.9967990  24.1937960  12.4832920
  45.9232960  24.2168430   6.4806150  45.3045380  23.8787980   5.8332450
  45.9057410  23.5728190   7.1885340  45.3659520  20.3952970  13.8971960
  44.9530700  21.2206680  14.1511950  44.6335470  19.8098010  13.7048320
  37.4992310  23.1812870   8.7590630  37.0949310  22.4690120   8.2636530
  37.5855430  22.8366110   9.6478670  37.9674010  26.8680430  10.9229840
  37.6702300  26.2625900  10.2437620  38.9173830  26.9057740  10.8119200
  36.2120930  19.9556080  12.5389670  36.7635520  20.0651420  11.7642920
  36.7264440  20.3293680  13.2544900  46.0559620  30.4412300  14.5852940
  45.5790180  31.2484490  14.3925550  45.3721410  29.7890630  14.7379150
  37.0592440  26.6062120  17.5737640  36.1620970  26.8302090  17.8211040
  37.0845310  26.7297060  16.6249040  44.0997660  23.4555240   3.4878900
  44.5390940  22.6177670   3.3416720  44.8126080  24.0884640   3.5743040
  35.8863660  23.4775440  16.1495010  35.7471430  24.3498240  16.5182410
  35.0045020  23.1348250  16.0042950  42.2093040  28.3951310   7.4560140
  42.6488950  29.1375640   7.0415530  42.1479930  28.6377880   8.3799100
  37.6844010  29.4197140  18.3580160  37.6559440  29.8240090  17.4908590
  37.5208980  28.4907500  18.1951760  47.6814800  14.7098050   1.8019940
  47.3687460  14.8024880   2.7019010  48.4427270  15.2879080   1.7517370
  34.1996940  22.0757850   6.2597280  34.0794540  22.8019940   5.6478550
  33.8897830  21.3060760   5.7825190  49.6358830  30.2024240  19.6544330
  50.1118550  30.6807130  20.3333410  50.2565990  30.1341730  18.9289830
  31.8382310  25.2472990  12.0665920  31.9162730  25.3821760  11.1221640
  32.4523990  24.5388880  12.2594040  33.0829940  26.9473180   8.4772100
  32.6758020  27.0887770   7.6225700  33.9742950  26.6633340   8.2743310
  49.0392080  27.3937090  16.8144340  49.1655140  27.1548970  15.8961520
  49.0813460  26.5621630  17.2866420  42.9008820  31.0965090  15.3839150
  43.4153490  31.0073100  16.1861580  42.0577900  31.4424790  15.6767060
  44.8763220  31.3820430   4.8123150  44.7164360  31.0923370   5.7104980
  44.7109930  30.6060560   4.2768380  37.3551600  31.1618960   6.5894770
  37.1794080  30.2454500   6.3762570  36.5007340  31.5206250   6.8292570
  44.5789350  28.8907990   3.3721150  43.8854510  28.8885280   2.7123430
  45.3212210  28.4667310   2.9415320  44.1439280  30.5170700   7.4469640
  44.5996230  29.7360080   7.7608260  44.4831800  31.2277520   7.9910820
  48.8916090  19.4469550  17.7794080  48.2760360  19.9549220  17.2509540
  48.5712510  18.5467880  17.7220020  31.8941830  26.2887160  14.6060380
  32.0572870  25.8192520  13.7879750  32.3594280  25.7810720  15.2709220
  36.6660600  15.4192920   9.6420950  36.2228750  16.2002460   9.3105470
  37.2245590  15.7422810  10.3491890  40.9530410  18.2861440  15.2456270
  40.4909780  18.4944460  16.0576210  40.5508520  17.4720790  14.9426940
  45.9534920  19.5070390  16.3752930  45.1028510  19.2076140  16.6962000
  45.7936710  19.7512400  15.4636750  43.0484630  21.0072140  18.4751720
  43.3738040  20.1735890  18.1353950  43.8364960  21.5300660  18.6230050
  39.7819420  15.0403620   4.5226780  39.1573600  15.0363490   5.2480090
  39.6949540  14.1734580   4.1262750  38.7036500  15.9640250  11.5010550
  39.0008830  16.8703080  11.4202570  39.2522060  15.4759030  10.8870120
  36.4574820  20.5426490   7.3702200  36.2315740  20.3263660   8.2748820
  35.6767350  20.9754950   7.0248170  43.6872580  20.5489860   5.9692850
  43.0881470  21.2725660   5.7856470  44.2352190  20.4866640   5.1869300
  38.8974030  21.4412070  18.0362470  38.8017630  20.5006800  17.8862870
  39.7406010  21.6627140  17.6410540  42.2937450  19.1853400   7.9996130
  42.6867020  19.5025600   7.1864820  42.6554300  18.3065280   8.1140650
  34.0284570  17.8525740  16.1896250  33.6347960  18.7000950  16.3969030
  33.3402970  17.2152110  16.3804890  40.6029620  17.9360710  19.2592990
  39.9127940  17.7432910  19.8939080  41.3461920  18.2195350  19.7917290
  31.3301620  15.7754200  10.2226330  31.0414670  16.3457060  10.9351310
  32.0747380  15.2958650  10.5857560  42.8792590  21.7759150  12.0946910
  42.1473710  22.2845960  12.4437010  42.4816930  20.9589130  11.7935690
  39.3169980  18.4513350  10.4999400  39.3206040  18.0103300   9.6503940
  40.2121100  18.7730680  10.6071220  35.1672360  18.3339840   9.4593610
  34.8272410  18.8115070  10.2160660  34.4049680  17.8804960   9.0994710
  39.3790130  19.4525430   3.4906160  39.5002950  19.4111910   4.4391980
  38.9938640  20.3149580   3.3352890  43.3418500  17.2292830  11.5069850
  43.3591240  17.6801480  12.3511700  43.0934080  16.3298470  11.7203290
  38.3911630  21.7626570   2.8889460  37.8228530  21.3144820   2.2625370
  39.1000630  22.1219350   2.3554610  46.7689250  14.6425010  17.3456230
  47.0935020  13.9114670  17.8714210  46.8045760  14.3238650  16.4437220
  33.4680810  25.6638590  16.7656190  33.0835600  25.0232260  17.3639150
  33.7793000  26.3674710  17.3350920  39.6177950  22.5115130  12.2464810
  39.9848080  22.0373700  12.9926150  39.4283010  23.3856700  12.5873150
  32.4818440  17.2558820   8.3758280  32.1965360  16.8914490   9.2136900
  32.4197300  16.5239280   7.7621420  35.9359110  25.7584760   5.1615870
  35.1621370  25.2182380   5.0014590  36.6653740  25.2391370   4.8233630
  46.6947090  24.7550120  10.9542260  47.4146210  25.2505410  10.5638370
  46.4928910  24.0768010  10.3096130  42.1557030  16.1488080   5.0971650
  41.3421640  15.6501250   5.0216960  41.9618980  16.9886330   4.6808000
  42.0765890  24.8259180  16.8411260  42.0103200  23.9054850  16.5868850
  41.4471030  24.9234620  17.5555900  44.8705420  20.5207730   3.3933810
  45.7585040  20.8324960   3.2185150  44.8410510  19.6479980   3.0014390
  35.9796510  25.4265140   8.7994680  36.4975180  24.6233400   8.7451570
  35.5280530  25.3644280   9.6411510  40.8666010  26.6931420   4.0721980
  41.2081710  27.4373650   3.5765300  40.0378720  27.0062540   4.4346810
  33.4641050  22.3926510  15.7120380  33.1055990  23.0580360  16.2993720
  33.1695610  21.5610060  16.0833000  36.6654170  22.8510750  18.5959930
  36.3654310  22.9967930  17.6987750  37.4365410  22.2916040  18.5033320
  42.0082620  27.6479750  16.5915060  42.0227160  26.7160710  16.3733970
  41.3007720  27.7339510  17.2304830  47.1419690  21.8319570   2.8613670
  47.0583410  22.2633790   2.0110110  47.8613880  22.2917920   3.2940490
  48.2193830  24.2887090  15.9383640  47.4942020  24.8815870  15.7413030
  48.7469290  24.2810630  15.1397010  48.1706940  28.6861830   5.5895800
  47.5283100  28.0317450   5.8639520  47.7837600  29.0916920   4.8136470
  43.7493420  26.0147260   9.4367490  44.1017240  25.4175390   8.7768860
  42.8655750  25.6891490   9.6075740  39.8356700  26.7744950   6.8437900
  40.5227830  27.3214160   7.2245490  39.0489120  27.3185680   6.8787510
  31.9749100  22.3917770   2.3354980  32.8443950  22.6742570   2.6190900
  31.4839420  23.2053640   2.2203790  39.1383910  23.7790980   6.4563260
  39.5946690  24.5896230   6.6823450  38.7872120  23.4614120   7.2881750
  41.4416520  29.2897320  13.6855560  42.0858740  29.4956700  14.3628980
  41.8045960  28.5285720  13.2326410  35.0395690  14.1228630   6.9285780
  34.9110320  14.1146530   7.8770700  34.2157710  14.4611720   6.5776790
  42.7148600  27.2929670  12.4033010  43.3570830  26.5922830  12.5165180
  43.2397950  28.0728110  12.2229900  44.4886220  28.0924570  15.6069070
  44.8242460  28.6791260  16.2846990  43.5686560  27.9617280  15.8366860
  32.3420350  31.6045150   2.9016610  32.7017990  32.2034490   2.2473880
  32.2012690  32.1505040   3.6751640  32.0389620  15.8819750  16.3892480
  31.3248140  16.0816670  16.9945090  32.4584660  15.1059320  16.7607280
  46.1420570  25.4950230   3.7886310  45.8542270  25.9562920   4.5764190
  46.9372740  25.0348000   4.0570530  32.3262210  29.8700010  17.3759010
  32.4353330  28.9294750  17.2354400  31.6742770  30.1354760  16.7272740
  40.3174800  28.1415900  18.7757130  39.9971670  27.4225140  19.3202820
  39.6433160  28.8170970  18.8493190  38.3588970  28.9876350   3.7190280
  38.3499070  29.7206040   3.1034790  37.4387330  28.7407930   3.8117240
  33.9595610  24.2091240   4.4637040  33.3523560  24.9490140   4.4732340
  34.4344960  24.2990600   3.6375240  43.5328400  18.3742060  14.1393930
  43.9009220  17.5537270  14.4673500  42.6726600  18.4343950  14.5549580
  46.8990430  17.3299000   4.9481490  46.2703590  17.4344670   4.2339720
  46.4042350  17.5495780   5.7375370  41.3448570  29.0504590   2.3815470
  41.4460550  28.8468580   1.4517450  40.4450310  28.7962870   2.5863250
  38.8674460  19.6084950   6.3639370  38.1590610  20.0771290   6.8052980
  39.1518940  18.9506960   6.9984560  40.4930390  21.0281650  14.3631900
  40.9915640  21.5027470  15.0283750  40.6353340  20.1045170  14.5701930
  42.8989890  16.3335610   7.8035160  42.7757670  16.3521740   6.8544670
  43.8474450  16.3814550   7.9233560  39.9866680  31.5690910   7.0763140
  40.2408180  31.5312300   6.1542510  39.0379160  31.4424240   7.0691390
  37.0709480  17.9170030   3.7390080  37.9200010  18.3540180   3.6730270
  36.7040750  18.2290290   4.5662140  47.6997250  17.2449610  15.2060290
  47.1970850  17.9855010  15.5454100  48.5153910  17.6333610  14.8897080
  45.9919260  22.4882790   8.6521650  45.0509400  22.5033020   8.8269340
  46.3063330  21.7018750   9.0981950  35.9700900  24.1702390   2.2125610
  36.7364170  24.0583750   2.7751040  36.0475590  23.4740360   1.5602380
  34.6647660  21.6027460   2.8958500  34.7451250  20.6554970   3.0075900
  35.5567410  21.9334340   3.0019160  47.9944840  29.6591640  10.3275910
  48.1192260  30.4822810  10.7999720  48.8610400  29.4482370   9.9800060
  35.4662370  31.7522850   9.9993040  36.2024850  31.2038310  10.2701610
  35.8503290  32.6178860   9.8599030  32.3507850  27.8196420   5.8734550
  31.4247630  28.0617560   5.8639960  32.8164280  28.6470680   5.7519300
  34.4720650  30.9368920  19.1878620  35.2733380  31.2580970  19.6014020
  33.9572470  30.5764500  19.9098530  43.3085280  27.0448790  19.1354030
  42.7023440  27.0680390  18.3949780  43.0039390  26.3131830  19.6721280
  44.7385650  30.7729080  17.7463440  45.6907400  30.6887100  17.6963680
  44.5913870  31.4370790  18.4197230  47.6294850  30.1523290   3.2455350
  47.3436360  29.7388430   2.4309530  47.4314400  31.0811000   3.1255870
  32.1918460  23.4242380  18.1314670  32.6957480  22.8449660  18.7030900
  31.4525880  23.7082610  18.6691040  39.2456400  24.8313370  17.6650190
  38.4802070  25.3998370  17.5804860  39.4272360  24.5389580  16.7718420
  42.3344810  25.2076600   2.2902950  41.7854910  25.6545900   2.9345690
  42.9564070  24.7025850   2.8140620  46.3879750  26.5618700  18.2225210
  47.1289220  26.8994460  17.7192670  45.6252430  26.7310760  17.6694980
  34.2241540  21.5671970  19.0264740  34.2646880  21.2685840  19.9349970
  35.0787040  21.9679580  18.8672260  38.0019930  24.1667520   4.1868250
  38.4236350  24.0007390   5.0299640  38.1270770  23.3567750   3.6923390
  36.1647350  20.1464070  16.9939230  35.6343810  19.6555020  16.3662570
  36.8335420  20.5748270  16.4597160  45.0625410  24.6133530  16.7580420
  45.4766430  24.7678610  17.6070840  44.1276410  24.7388750  16.9206200
  45.5347580  21.9529690  18.7619570  46.1168350  21.1982010  18.6740050
  45.7109350  22.4837130  17.9851050  36.6519650  17.1126440  17.0736520
  36.5576520  16.4947190  16.3487390  36.0717040  17.8392730  16.8466430
  39.4181090  15.6699680  14.1063910  38.9698390  15.6923940  13.2609460
  38.7846290  15.2718700  14.7034210  39.8240640  24.5654010  14.7276350
  40.2428750  25.4086740  14.5552590  38.9049270  24.7026050  14.4983130
  42.1604540  22.2970190  16.1114190  42.2800750  21.7011330  16.8509030
  43.0198540  22.3339880  15.6915490  44.4992440  22.8507380  14.6876700
  43.9727660  23.3750000  14.0841840  44.8423780  23.4834770  15.3186430
  37.6748060  30.8707020  15.8434080  37.1369150  31.5953080  15.5242780
  37.9282020  30.3937360  15.0531420  38.9273310  18.8391540  17.3690010
  39.5173000  18.5307390  18.0567830  38.1093550  18.3671290  17.5249910
  43.7466740  18.4557350  17.6023030  43.0582260  17.7938890  17.5373020
  44.4672760  18.0095620  18.0471490  44.3767140  15.0508980   3.6613290
  44.6569430  14.2076880   4.0172710  43.6032870  15.2832090   4.1752040
  40.5310270  32.1058230  16.1020730  40.4568970  33.0093370  16.4093100
  39.6289110  31.7870130  16.0742800  38.9146560  16.2835990   2.1060490
  38.5668560  15.6059980   1.5262940  39.1159330  15.8225500   2.9203880
  41.0795600  31.2716740   3.7247090  41.9746390  31.6101710   3.7465850
  41.1113230  30.5496150   3.0971370  34.7191760  26.6443790   1.9534090
  35.1566630  27.1873460   2.6091670  35.2039490  25.8190740   1.9630430
  31.9337560  29.4332820   9.4054350  32.2640570  28.5653880   9.1732990
  32.3628560  29.6391340  10.2359310  36.5299480  27.7641830   7.0656320
  36.2295020  27.6406800   7.9660230  36.4236970  26.9050420   6.6572050
  32.4227770  30.3003410  12.1435980  31.9858760  30.4804210  12.9760130
  32.9905450  31.0578030  12.0017700  48.0589950  29.8020410  16.4313290
  47.4591940  29.8612970  15.6877210  48.1883850  28.8625390  16.5610140
  49.2991400  27.5438230   1.7683000  48.4684360  27.6114880   2.2390230
  49.4763230  28.4342350   1.4649860  48.7547860  24.2885710   4.2717200
  49.5166770  24.8582360   4.3776890  48.7702230  23.7212910   5.0425510
  32.2552200  22.8123640   8.5024860  31.6001040  22.5435280   7.8584560
  33.0930150  22.7028120   8.0526840  49.7607830  25.1435810   9.1159130
  50.1316660  24.3603130   8.7095100  50.4009760  25.8324910   8.9376430
  46.7441590  26.5272390  14.5289450  45.9301430  26.9569550  14.7915240
  47.1515790  27.1390800  13.9158500  45.2042640  17.6064930   2.7243350
  45.6227520  17.4195910   1.8840010  44.8978700  16.7543980   3.0346280
  48.7032370  22.5189070   6.4219150  48.3275970  21.7517000   5.9900440
  47.9735490  22.9011770   6.9094080  33.2928130  23.1976210  13.0428200
  33.6601170  23.1103610  13.9224220  32.7238950  22.4342760  12.9435060
  48.0931990  21.6660590  16.0558670  47.8618080  21.4373340  15.1556620
  48.3536540  22.5860140  16.0103560  32.8444130  20.1085300  16.9486620
  31.9500180  20.0752060  17.2880330  33.3841680  20.3072090  17.7137870
  46.5320060  16.8917020  18.8338370  47.4090240  16.9000420  19.2172370
  46.5440900  16.1547860  18.2230720  31.4690280  20.0222570   4.4450190
  30.5654360  20.2852770   4.2701850  31.9530900  20.2933740   3.6650150
  47.9783330  20.7446560   9.7226390  48.5020810  20.2509210   9.0916560
  48.5642750  20.8796920  10.4673960  48.1573050  20.8286430  13.2445940
  47.2075760  20.7949970  13.3590930  48.3386060  21.7386540  13.0095710
  34.0117490  19.0788110   2.3544570  34.7209190  18.6571330   1.8691850
  33.2957430  19.1463340   1.7227920  47.4683300  20.0019910   5.6618800
  47.9642420  19.7690780   6.4467680  47.2699370  19.1631750   5.2456440
  33.3483840  14.3833630  11.2969840  33.9960030  13.8331010  10.8565000
  33.7685680  14.6376780  12.1185650  48.8970460  18.6380860   8.1956480
  48.7869740  18.4836900   9.1338750  49.6578050  18.1101800   7.9531890
  47.2436180  14.5774990  14.6539480  47.8808400  15.1909130  15.0198670
  47.3911070  14.6135650  13.7088710  49.8599220  17.2399440   4.0619330
  49.0650720  17.1744560   4.5912240  50.0642500  18.1750080   4.0504680
  46.8017640  31.2790990   8.0557720  47.3976710  30.9575560   7.3792140
  47.0595790  30.8062810   8.8470990  33.1015840  14.5389300  14.0395160
  32.7530660  14.9953120  14.8053340  32.7703540  13.6446430  14.1217590
  34.7080210  27.7108900  18.2048350  34.6649840  27.3401810  19.0862810
  34.8391220  28.6486470  18.3450170  38.4086240  29.2668490  13.8058070
  38.1677600  29.5343050  12.9188590  39.3488880  29.4374220  13.8608930
  40.6140660  15.7301180  17.5614580  40.5529550  16.3223010  18.3109990
  41.5541040  15.6227140  17.4164840  43.2515220  15.3871240  17.2006870
  43.8655630  15.7050530  16.5387950  43.7964780  14.9019830  17.8202730
  49.6690400  31.2862870  14.6068710  49.1748680  31.6831740  13.8895840
  49.0603690  30.6612080  15.0005990  33.7736480  14.0665500  17.3145930
  34.3219470  13.8853550  16.5512040  33.8391790  13.2759610  17.8502240
  34.5468240  30.6571150  15.3246130  33.9528560  30.5255850  16.0636170
  34.5392080  29.8209290  14.8588230  43.9923260  13.9503380  13.5276160
  43.1183100  14.2838490  13.3249090  43.8834010  13.4776560  14.3528030
  44.8995240  16.1574250  14.9117880  44.5708600  15.3426010  14.5319610
  45.8477540  16.1144060  14.7883570  47.3529850  31.9286290  11.8855450
  46.8932820  32.6802100  11.5113470  46.7242310  31.2092760  11.8270250
  34.1780470  28.0229530  14.2754170  33.4514530  27.4034820  14.2080120
  34.2389620  28.4170140  13.4052250  37.7825570  30.2374530  11.0603580
  38.2990590  29.6261890  10.5351840  38.4322950  30.7403310  11.5514590
  40.5221070  31.1283020  11.8872560  40.8098880  30.8737320  11.0105570
  41.0344290  30.5760380  12.4778130  41.7398080  14.8673220  12.4669070
  40.9569870  15.3418720  12.7465830  41.4461010  13.9628050  12.3582250
  46.2919150  15.5696320  10.5118160  46.7327240  15.5141420   9.6639760
  46.0226740  16.4854330  10.5828340  48.1557720  15.2011560   8.5226980
  48.0946120  14.2572780   8.3758000  48.9349750  15.3091650   9.0680440
  32.4610470  31.3403920   7.4850930  32.2932510  30.7074600   8.1832820
  31.5944980  31.5463320   7.1345120  33.0838490  15.1720700   4.9882790
  33.8417850  15.2849580   4.4146820  32.6215660  16.0089900   4.9426220
  39.6252300  17.2859970   7.9785100  38.8126810  16.9116860   7.6380980
  40.1293940  16.5305050   8.2806290  44.1277280  13.9502420   9.2168170
  44.7306650  14.5222630   9.6916690  43.3870270  14.5141860   8.9942070
  47.2711880  14.3523980   4.4908450  47.4662510  15.2507430   4.7575880
  46.4841750  14.1211060   4.9841400  34.0673170  30.0337150   4.9301070
  33.5420790  30.4145180   4.2263030  33.9917750  30.6587920   5.6510780
  35.4563640  15.6984750   3.5284760  35.9856400  14.9114550   3.3992710
  36.0891960  16.3775940   3.7620290  37.6501480  15.4359890   6.5830150
  37.0204220  14.7347200   6.7500280  37.1106620  16.1964020   6.3663310
  40.5893430  32.0499120  19.2540760  41.5160740  31.8143390  19.2976720
  40.5743860  32.8771120  18.7726790  48.8238490  31.5924690   6.2515010
  48.9990680  30.9062430   5.6075930  48.1260060  32.1171740   5.8591680
  37.7757040  14.7143870  19.0182640  37.4941310  15.2177470  18.2543460
  38.1576740  13.9165620  18.6524770  36.6666140  31.9819530   3.8050320
  37.3984960  31.6978810   3.2574210  36.9259810  31.7432810   4.6949700
  35.8280930  28.0984260   3.8096650  35.1989810  28.5669360   4.3582480
  35.9428760  27.2533480   4.2442840  44.3772500  14.1297450  19.5963110
  44.2637950  14.4492060  20.4914630  45.1942240  14.5309960  19.3000390
  47.1570990  31.2768980  19.0781800  47.9496310  30.7818210  18.8707760
  47.4504140  31.9559120  19.6857410  43.2830650   3.3746430  46.2828320
  43.2024700   2.4601040  46.0120030  42.8695070   3.8713500  45.5768030
  41.4148690   5.1525450  48.1637590  40.6390790   4.6725890  48.4536160
  42.0661620   4.4731100  47.9893750  35.4314520   5.4645260  49.0413350
  34.5999400   5.2093970  49.4409860  36.0395500   5.5356030  49.7771270
  45.4356120   9.5585640  46.9436720  44.9737650   8.7872880  47.2723890
  46.2481670   9.5851710  47.4489170  35.4115780   9.4985350  49.2371370
  35.7143820   8.6083090  49.0581590  36.1559370  10.0555570  49.0093620
  31.8039480   3.0252800  48.7095440  32.3755590   2.2575000  48.7099080
  31.8041020   3.3241560  47.8002050  41.6619430  11.8443650  46.5640710
  41.0430870  12.3001150  45.9935150  42.5171210  11.9995110  46.1630410
  40.8557680   7.8282640  48.1707750  40.7865960   6.8872580  48.0096880
  41.6177540   7.9184050  48.7430320  42.5282780   6.7282890  43.9572620
  41.9100050   7.1932340  43.3935340  43.0406030   7.4210370  44.3742130
  37.3914540   6.2558760  50.6356220  37.0583920   6.8827680  51.2777290
  37.5681220   6.7820640  49.8557890  36.6033640   8.2239560  52.4505400
  37.2207640   8.8990640  52.1689850  35.7426760   8.6327540  52.3592900
  31.8965980   7.4139420  41.3312250  31.5193960   7.9026520  40.5997150
  32.1539050   8.0864700  41.9618780  47.5211230   9.6878970  50.3660040
  46.8374750  10.3578080  50.3576710  48.0605520   9.8859620  49.6004900
  45.0569970  11.5323100  49.0805220  45.0697130  11.1285390  48.2127480
  44.5045190  12.3070390  48.9766650  46.3515390   8.2539320  44.1695390
  46.2411720   7.3113650  44.2944810  46.3483640   8.6154960  45.0558150
  44.4555410   6.4352940  50.4087830  44.8724200   6.2213050  49.5741290
  45.1795230   6.6925730  50.9796450  41.8935670   3.8804640  43.5257880
  40.9664950   3.8142020  43.7546350  42.0460490   4.8184770  43.4113120
  48.4017510   4.8340160  50.5004070  47.5736140   4.9033250  50.0254200
  48.9967990   5.4194470  50.0319900  45.9232960   5.4424940  44.0293130
  45.3045380   5.1044490  43.3819430  45.9057410   4.7984700  44.7372320
  37.4992310   4.4069380  46.3077610  37.0949310   3.6946630  45.8123510
  37.5855430   4.0622620  47.1965650  37.9674010   8.0936940  48.4716820
  37.6702300   7.4882410  47.7924600  38.9173830   8.1314250  48.3606180
  46.0559620  11.6668810  52.1339920  45.5790180  12.4741000  51.9412530
  45.3721410  11.0147140  52.2866130  37.0592440   7.8318630  55.1224620
  36.1620970   8.0558600  55.3698020  37.0845310   7.9553570  54.1736020
  44.0997660   4.6811750  41.0365880  44.5390940   3.8434180  40.8903700
  44.8126080   5.3141150  41.1230020  35.8863660   4.7031950  53.6981990
  35.7471430   5.5754750  54.0669390  35.0045020   4.3604760  53.5529930
  42.2093040   9.6207820  45.0047120  42.6488950  10.3632150  44.5902510
  42.1479930   9.8634390  45.9286080  37.6844010  10.6453650  55.9067140
  37.6559440  11.0496600  55.0395570  37.5208980   9.7164010  55.7438740
  34.1996940   3.3014360  43.8084260  34.0794540   4.0276450  43.1965530
  33.8897830   2.5317270  43.3312170  31.8382310   6.4729500  49.6152900
  31.9162730   6.6078270  48.6708620  32.4523990   5.7645390  49.8081020
  33.0829940   8.1729690  46.0259080  32.6758020   8.3144280  45.1712680
  33.9742950   7.8889850  45.8230290  49.0392080   8.6193600  54.3631320
  49.1655140   8.3805480  53.4448500  49.0813460   7.7878140  54.8353400
  42.9008820  12.3221600  52.9326130  43.4153490  12.2329610  53.7348560
  42.0577900  12.6681300  53.2254040  44.8763220  12.6076940  42.3610130
  44.7164360  12.3179880  43.2591960  44.7109930  11.8317070  41.8255360
  37.3551600  12.3875470  44.1381750  37.1794080  11.4711010  43.9249550
  36.5007340  12.7462760  44.3779550  44.5789350  10.1164500  40.9208130
  43.8854510  10.1141790  40.2610410  45.3212210   9.6923820  40.4902300
  44.1439280  11.7427210  44.9956620  44.5996230  10.9616590  45.3095240
  44.4831800  12.4534030  45.5397800  31.8941830   7.5143670  52.1547360
  32.0572870   7.0449030  51.3366730  32.3594280   7.0067230  52.8196200
  43.0484630   2.2328650  56.0238700  43.3738040   1.3992400  55.6840930
  43.8364960   2.7557170  56.1717030  36.4574820   1.7683000  44.9189180
  36.2315740   1.5520170  45.8235800  35.6767350   2.2011460  44.5735150
  43.6872580   1.7746370  43.5179830  43.0881470   2.4982170  43.3343450
  44.2352190   1.7123150  42.7356280  38.8974030   2.6668580  55.5849450
  38.8017630   1.7263310  55.4349850  39.7406010   2.8883650  55.1897520
  42.8792590   3.0015660  49.6433890  42.1473710   3.5102470  49.9923990
  42.4816930   2.1845640  49.3422670  38.3911630   2.9883080  40.4376440
  37.8228530   2.5401330  39.8112350  39.1000630   3.3475860  39.9041590
  33.4680810   6.8895100  54.3143170  33.0835600   6.2488770  54.9126130
  33.7793000   7.5931220  54.8837900  39.6177950   3.7371640  49.7951790
  39.9848080   3.2630210  50.5413130  39.4283010   4.6113210  50.1360130
  37.4077320   2.7780280  52.1136000  37.1034390   3.6572260  52.3386360
  38.3623780   2.8380070  52.1493440  35.9359110   6.9841270  42.7102850
  35.1621370   6.4438890  42.5501570  36.6653740   6.4647880  42.3720610
  46.6947090   5.9806630  48.5029240  47.4146210   6.4761920  48.1125350
  46.4928910   5.3024520  47.8583110  42.0765890   6.0515690  54.3898240
  42.0103200   5.1311360  54.1355830  41.4471030   6.1491130  55.1042880
  35.9796510   6.6521650  46.3481660  36.4975180   5.8489910  46.2938550
  35.5280530   6.5900790  47.1898490  40.8666010   7.9187930  41.6208960
  41.2081710   8.6630160  41.1252280  40.0378720   8.2319050  41.9833790
  33.4641050   3.6183020  53.2607360  33.1055990   4.2836870  53.8480700
  33.1695610   2.7866570  53.6319980  36.6654170   4.0767260  56.1446910
  36.3654310   4.2224440  55.2474730  37.4365410   3.5172550  56.0520300
  42.0082620   8.8736260  54.1402040  42.0227160   7.9417220  53.9220950
  41.3007720   8.9596020  54.7791810  47.1419690   3.0576080  40.4100650
  47.0583410   3.4890300  39.5597090  47.8613880   3.5174430  40.8427470
  48.2193830   5.5143600  53.4870620  47.4942020   6.1072380  53.2900010
  48.7469290   5.5067140  52.6883990  48.1706940   9.9118340  43.1382780
  47.5283100   9.2573960  43.4126500  47.7837600  10.3173430  42.3623450
  43.7493420   7.2403770  46.9854470  44.1017240   6.6431900  46.3255840
  42.8655750   6.9148000  47.1562720  39.8356700   8.0001460  44.3924880
  40.5227830   8.5470670  44.7732470  39.0489120   8.5442190  44.4274490
  31.9749100   3.6174280  39.8841960  32.8443950   3.8999080  40.1677880
  31.4839420   4.4310150  39.7690770  39.1383910   5.0047490  44.0050240
  39.5946690   5.8152740  44.2310430  38.7872120   4.6870630  44.8368730
  41.4416520  10.5153830  51.2342540  42.0858740  10.7213210  51.9115960
  41.8045960   9.7542230  50.7813390  42.7148600   8.5186180  49.9519990
  43.3570830   7.8179340  50.0652160  43.2397950   9.2984620  49.7716880
  46.5604320   8.8034800  39.6759130  46.3341900   8.0865240  40.2683770
  46.1700520   8.5547240  38.8380880  44.4886220   9.3181080  53.1556050
  44.8242460   9.9047770  53.8333970  43.5686560   9.1873790  53.3853840
  32.3420350  12.8301660  40.4503590  32.7017990  13.4291000  39.7960860
  32.2012690  13.3761550  41.2238620  46.1420570   6.7206740  41.3373290
  45.8542270   7.1819430  42.1251170  46.9372740   6.2604510  41.6057510
  32.3262210  11.0956520  54.9245990  32.4353330  10.1551260  54.7841380
  31.6742770  11.3611270  54.2759720  38.3588970  10.2132860  41.2677260
  38.3499070  10.9462550  40.6521770  37.4387330   9.9664440  41.3604220
  33.9595610   5.4347750  42.0124020  33.3523560   6.1746650  42.0219320
  34.4344960   5.5247110  41.1862220  41.3448570  10.2761100  39.9302450
  41.4460550  10.0725090  39.0004430  40.4450310  10.0219380  40.1350230
  39.9866680  12.7947420  44.6250120  40.2408180  12.7568810  43.7029490
  39.0379160  12.6680750  44.6178370  45.9919260   3.7139300  46.2008630
  45.0509400   3.7289530  46.3756320  46.3063330   2.9275260  46.6468930
  35.9700900   5.3958900  39.7612590  36.7364170   5.2840260  40.3238020
  36.0475590   4.6996870  39.1089360  34.6647660   2.8283970  40.4445480
  34.7451250   1.8811480  40.5562880  35.5567410   3.1590850  40.5506140
  47.9944840  10.8848150  47.8762890  48.1192260  11.7079320  48.3486700
  48.8610400  10.6738880  47.5287040  35.4662370  12.9779360  47.5480020
  36.2024850  12.4294820  47.8188590  35.8503290  13.8435370  47.4086010
  32.3507850   9.0452930  43.4221530  31.4247630   9.2874070  43.4126940
  32.8164280   9.8727190  43.3006280  38.5764680  12.1509670  39.3705590
  39.3693290  12.4398500  38.9187380  38.0569030  11.7201840  38.6918070
  44.7385650  11.9985590  55.2950420  45.6907400  11.9143610  55.2450660
  44.5913870  12.6627300  55.9684210  47.6294850  11.3779800  40.7942330
  47.3436360  10.9644940  39.9796510  47.4314400  12.3067510  40.6742850
  32.1918460   4.6498890  55.6801650  32.6957480   4.0706170  56.2517880
  31.4525880   4.9339120  56.2178020  39.0942080   7.3713080  39.2347940
  38.9892720   6.7565430  39.9609320  38.9266300   6.8478970  38.4510950
  39.2456400   6.0569880  55.2137170  38.4802070   6.6254880  55.1291840
  39.4272360   5.7646090  54.3205400  42.3344810   6.4333110  39.8389930
  41.7854910   6.8802410  40.4832670  42.9564070   5.9282360  40.3627600
  46.3879750   7.7875210  55.7712190  47.1289220   8.1250970  55.2679650
  45.6252430   7.9567270  55.2181960  38.0019930   5.3924030  41.7355230
  38.4236350   5.2263900  42.5786620  38.1270770   4.5824260  41.2410370
  40.5147570   4.4161640  38.9832330  41.0353230   3.7010660  38.6173480
  41.1615970   5.0547510  39.2832840  45.0625410   5.8390040  54.3067400
  45.4766430   5.9935120  55.1557820  44.1276410   5.9645260  54.4693180
  45.5347580   3.1786200  56.3106550  46.1168350   2.4238520  56.2227030
  45.7109350   3.7093640  55.5338030  39.8240640   5.7910520  52.2763330
  40.2428750   6.6343250  52.1039570  38.9049270   5.9282560  52.0470110
  42.1604540   3.5226700  53.6601170  42.2800750   2.9267840  54.3996010
  43.0198540   3.5596390  53.2402470  44.4992440   4.0763890  52.2363680
  43.9727660   4.6006510  51.6328820  44.8423780   4.7091280  52.8673410
  37.6748060  12.0963530  53.3921060  37.1369150  12.8209590  53.0729760
  37.9282020  11.6193870  52.6018400  40.5310270  13.3314740  53.6507710
  40.4568970  14.2349880  53.9580080  39.6289110  13.0126640  53.6229780
  41.0795600  12.4973250  41.2734070  41.9746390  12.8358220  41.2952830
  41.1113230  11.7752660  40.6458350  34.7191760   7.8700300  39.5021070
  35.1566630   8.4129970  40.1578650  35.2039490   7.0447250  39.5117410
  31.9337560  10.6589330  46.9541330  32.2640570   9.7910390  46.7219970
  32.3628560  10.8647850  47.7846290  36.5299480   8.9898340  44.6143300
  36.2295020   8.8663310  45.5147210  36.4236970   8.1306930  44.2059030
  32.4227770  11.5259920  49.6922960  31.9858760  11.7060720  50.5247110
  32.9905450  12.2834540  49.5504680  48.0589950  11.0276920  53.9800270
  47.4591940  11.0869480  53.2364190  48.1883850  10.0881900  54.1097120
  49.2991400   8.7694740  39.3169980  48.4684360   8.8371390  39.7877210
  49.4763230   9.6598860  39.0136840  48.7547860   5.5142220  41.8204180
  49.5166770   6.0838870  41.9263870  48.7702230   4.9469420  42.5912490
  32.2552200   4.0380150  46.0511840  31.6001040   3.7691790  45.4071540
  33.0930150   3.9284630  45.6013820  49.7607830   6.3692320  46.6646110
  50.1316660   5.5859640  46.2582080  50.4009760   7.0581420  46.4863410
  46.7441590   7.7528900  52.0776430  45.9301430   8.1826060  52.3402220
  47.1515790   8.3647310  51.4645480  48.8067030   5.8076590  38.9776700
  49.0815870   6.7155470  38.8495920  48.6177770   5.7439120  39.9138690
  48.7032370   3.7445580  43.9706130  48.3275970   2.9773510  43.5387420
  47.9735490   4.1268280  44.4581060  33.2928130   4.4232720  50.5915180
  33.6601170   4.3360120  51.4711200  32.7238950   3.6599270  50.4922040
  48.0931990   2.8917100  53.6045650  47.8618080   2.6629850  52.7043600
  48.3536540   3.8116650  53.5590540  47.9783330   1.9703070  47.2713370
  48.5020810   1.4765720  46.6403540  48.5642750   2.1053430  48.0160940
  48.1573050   2.0542940  50.7932920  47.2075760   2.0206480  50.9077910
  48.3386060   2.9643050  50.5582690  46.8017640  12.5047500  45.6044700
  47.3976710  12.1832070  44.9279120  47.0595790  12.0319320  46.3957970
  34.7080210   8.9365410  55.7535330  34.6649840   8.5658320  56.6349790
  34.8391220   9.8742980  55.8937150  38.4086240  10.4925000  51.3545050
  38.1677600  10.7599560  50.4675570  39.3488880  10.6630730  51.4095910
  49.6690400  12.5119380  52.1555690  49.1748680  12.9088250  51.4382820
  49.0603690  11.8868590  52.5492970  34.5468240  11.8827660  52.8733110
  33.9528560  11.7512360  53.6123150  34.5392080  11.0465800  52.4075210
  47.3529850  13.1542800  49.4342430  46.8932820  13.9058610  49.0600450
  46.7242310  12.4349270  49.3757230  34.1780470   9.2486040  51.8241150
  33.4514530   8.6291330  51.7567100  34.2389620   9.6426650  50.9539230
  37.7825570  11.4631040  48.6090560  38.2990590  10.8518400  48.0838820
  38.4322950  11.9659820  49.1001570  40.5221070  12.3539530  49.4359540
  40.8098880  12.0993830  48.5592550  41.0344290  11.8016890  50.0265110
  32.4610470  12.5660430  45.0337910  32.2932510  11.9331110  45.7319800
  31.5944980  12.7719830  44.6832100  34.0673170  11.2593660  42.4788050
  33.5420790  11.6401690  41.7750010  33.9917750  11.8844430  43.1997760
  48.8238490  12.8181200  43.8001990  48.9990680  12.1318940  43.1562910
  48.1260060  13.3428250  43.4078660  36.6666140  13.2076040  41.3537300
  37.3984960  12.9235320  40.8061190  36.9259810  12.9689320  42.2436680
  35.8280930   9.3240770  41.3583630  35.1989810   9.7925870  41.9069460
  35.9428760   8.4789990  41.7929820  43.2830650   3.3746430  27.5084830
  43.2024700   2.4601040  27.2376540  42.8695070   3.8713500  26.8024540
  41.4148690   5.1525450  29.3894100  40.6390790   4.6725890  29.6792670
  42.0661620   4.4731100  29.2150260  35.4314520   5.4645260  30.2669860
  34.5999400   5.2093970  30.6666370  36.0395500   5.5356030  31.0027780
  45.4356120   9.5585640  28.1693230  44.9737650   8.7872880  28.4980400
  46.2481670   9.5851710  28.6745680  35.4115780   9.4985350  30.4627880
  35.7143820   8.6083090  30.2838100  36.1559370  10.0555570  30.2350130
  31.8039480   3.0252800  29.9351950  32.3755590   2.2575000  29.9355590
  31.8041020   3.3241560  29.0258560  41.6619430  11.8443650  27.7897220
  41.0430870  12.3001150  27.2191660  42.5171210  11.9995110  27.3886920
  40.8557680   7.8282640  29.3964260  40.7865960   6.8872580  29.2353390
  41.6177540   7.9184050  29.9686830  42.5282780   6.7282890  25.1829130
  41.9100050   7.1932340  24.6191850  43.0406030   7.4210370  25.5998640
  37.3914540   6.2558760  31.8612730  37.0583920   6.8827680  32.5033800
  37.5681220   6.7820640  31.0814400  36.6033640   8.2239560  33.6761910
  37.2207640   8.8990640  33.3946360  35.7426760   8.6327540  33.5849410
  31.8965980   7.4139420  22.5568760  31.5193960   7.9026520  21.8253660
  32.1539050   8.0864700  23.1875290  47.5211230   9.6878970  31.5916550
  46.8374750  10.3578080  31.5833220  48.0605520   9.8859620  30.8261410
  45.0569970  11.5323100  30.3061730  45.0697130  11.1285390  29.4383990
  44.5045190  12.3070390  30.2023160  46.3515390   8.2539320  25.3951900
  46.2411720   7.3113650  25.5201320  46.3483640   8.6154960  26.2814660
  44.4555410   6.4352940  31.6344340  44.8724200   6.2213050  30.7997800
  45.1795230   6.6925730  32.2052960  41.8935670   3.8804640  24.7514390
  40.9664950   3.8142020  24.9802860  42.0460490   4.8184770  24.6369630
  48.4017510   4.8340160  31.7260580  47.5736140   4.9033250  31.2510710
  48.9967990   5.4194470  31.2576410  45.9232960   5.4424940  25.2549640
  45.3045380   5.1044490  24.6075940  45.9057410   4.7984700  25.9628830
  37.4992310   4.4069380  27.5334120  37.0949310   3.6946630  27.0380020
  37.5855430   4.0622620  28.4222160  37.9674010   8.0936940  29.6973330
  37.6702300   7.4882410  29.0181110  38.9173830   8.1314250  29.5862690
  46.0559620  11.6668810  33.3596430  45.5790180  12.4741000  33.1669040
  45.3721410  11.0147140  33.5122640  37.0592440   7.8318630  36.3481130
  36.1620970   8.0558600  36.5954530  37.0845310   7.9553570  35.3992530
  44.0997660   4.6811750  22.2622390  44.5390940   3.8434180  22.1160210
  44.8126080   5.3141150  22.3486530  35.8863660   4.7031950  34.9238500
  35.7471430   5.5754750  35.2925900  35.0045020   4.3604760  34.7786440
  42.2093040   9.6207820  26.2303630  42.6488950  10.3632150  25.8159020
  42.1479930   9.8634390  27.1542590  37.6844010  10.6453650  37.1323650
  37.6559440  11.0496600  36.2652080  37.5208980   9.7164010  36.9695250
  34.1996940   3.3014360  25.0340770  34.0794540   4.0276450  24.4222040
  33.8897830   2.5317270  24.5568680  49.6358830  11.4280750  38.4287820
  50.1118550  11.9063640  39.1076900  50.2565990  11.3598240  37.7033320
  31.8382310   6.4729500  30.8409410  31.9162730   6.6078270  29.8965130
  32.4523990   5.7645390  31.0337530  33.0829940   8.1729690  27.2515590
  32.6758020   8.3144280  26.3969190  33.9742950   7.8889850  27.0486800
  49.0392080   8.6193600  35.5887830  49.1655140   8.3805480  34.6705010
  49.0813460   7.7878140  36.0609910  42.9008820  12.3221600  34.1582640
  43.4153490  12.2329610  34.9605070  42.0577900  12.6681300  34.4510550
  44.8763220  12.6076940  23.5866640  44.7164360  12.3179880  24.4848470
  44.7109930  11.8317070  23.0511870  37.3551600  12.3875470  25.3638260
  37.1794080  11.4711010  25.1506060  36.5007340  12.7462760  25.6036060
  44.5789350  10.1164500  22.1464640  43.8854510  10.1141790  21.4866920
  45.3212210   9.6923820  21.7158810  44.1439280  11.7427210  26.2213130
  44.5996230  10.9616590  26.5351750  44.4831800  12.4534030  26.7654310
  31.8941830   7.5143670  33.3803870  32.0572870   7.0449030  32.5623240
  32.3594280   7.0067230  34.0452710  43.0484630   2.2328650  37.2495210
  43.3738040   1.3992400  36.9097440  43.8364960   2.7557170  37.3973540
  36.4574820   1.7683000  26.1445690  36.2315740   1.5520170  27.0492310
  35.6767350   2.2011460  25.7991660  43.6872580   1.7746370  24.7436340
  43.0881470   2.4982170  24.5599960  44.2352190   1.7123150  23.9612790
  38.8974030   2.6668580  36.8105960  38.8017630   1.7263310  36.6606360
  39.7406010   2.8883650  36.4154030  42.8792590   3.0015660  30.8690400
  42.1473710   3.5102470  31.2180500  42.4816930   2.1845640  30.5679180
  38.3911630   2.9883080  21.6632950  37.8228530   2.5401330  21.0368860
  39.1000630   3.3475860  21.1298100  33.4680810   6.8895100  35.5399680
  33.0835600   6.2488770  36.1382640  33.7793000   7.5931220  36.1094410
  39.6177950   3.7371640  31.0208300  39.9848080   3.2630210  31.7669640
  39.4283010   4.6113210  31.3616640  37.4077320   2.7780280  33.3392510
  37.1034390   3.6572260  33.5642870  38.3623780   2.8380070  33.3749950
  35.9359110   6.9841270  23.9359360  35.1621370   6.4438890  23.7758080
  36.6653740   6.4647880  23.5977120  46.6947090   5.9806630  29.7285750
  47.4146210   6.4761920  29.3381860  46.4928910   5.3024520  29.0839620
  42.0765890   6.0515690  35.6154750  42.0103200   5.1311360  35.3612340
  41.4471030   6.1491130  36.3299390  35.9796510   6.6521650  27.5738170
  36.4975180   5.8489910  27.5195060  35.5280530   6.5900790  28.4155000
  40.8666010   7.9187930  22.8465470  41.2081710   8.6630160  22.3508790
  40.0378720   8.2319050  23.2090300  33.4641050   3.6183020  34.4863870
  33.1055990   4.2836870  35.0737210  33.1695610   2.7866570  34.8576490
  36.6654170   4.0767260  37.3703420  36.3654310   4.2224440  36.4731240
  37.4365410   3.5172550  37.2776810  42.0082620   8.8736260  35.3658550
  42.0227160   7.9417220  35.1477460  41.3007720   8.9596020  36.0048320
  47.1419690   3.0576080  21.6357160  47.0583410   3.4890300  20.7853600
  47.8613880   3.5174430  22.0683980  48.2193830   5.5143600  34.7127130
  47.4942020   6.1072380  34.5156520  48.7469290   5.5067140  33.9140500
  48.1706940   9.9118340  24.3639290  47.5283100   9.2573960  24.6383010
  47.7837600  10.3173430  23.5879960  43.7493420   7.2403770  28.2110980
  44.1017240   6.6431900  27.5512350  42.8655750   6.9148000  28.3819230
  39.8356700   8.0001460  25.6181390  40.5227830   8.5470670  25.9988980
  39.0489120   8.5442190  25.6531000  31.9749100   3.6174280  21.1098470
  32.8443950   3.8999080  21.3934390  31.4839420   4.4310150  20.9947280
  39.1383910   5.0047490  25.2306750  39.5946690   5.8152740  25.4566940
  38.7872120   4.6870630  26.0625240  41.4416520  10.5153830  32.4599050
  42.0858740  10.7213210  33.1372470  41.8045960   9.7542230  32.0069900
  42.7148600   8.5186180  31.1776500  43.3570830   7.8179340  31.2908670
  43.2397950   9.2984620  30.9973390  46.5604320   8.8034800  20.9015640
  46.3341900   8.0865240  21.4940280  46.1700520   8.5547240  20.0637390
  44.4886220   9.3181080  34.3812560  44.8242460   9.9047770  35.0590480
  43.5686560   9.1873790  34.6110350  32.3420350  12.8301660  21.6760100
  32.7017990  13.4291000  21.0217370  32.2012690  13.3761550  22.4495130
  46.1420570   6.7206740  22.5629800  45.8542270   7.1819430  23.3507680
  46.9372740   6.2604510  22.8314020  32.3262210  11.0956520  36.1502500
  32.4353330  10.1551260  36.0097890  31.6742770  11.3611270  35.5016230
  40.3174800   9.3672410  37.5500620  39.9971670   8.6481650  38.0946310
  39.6433160  10.0427480  37.6236680  38.3588970  10.2132860  22.4933770
  38.3499070  10.9462550  21.8778280  37.4387330   9.9664440  22.5860730
  33.9595610   5.4347750  23.2380530  33.3523560   6.1746650  23.2475830
  34.4344960   5.5247110  22.4118730  41.3448570  10.2761100  21.1558960
  41.4460550  10.0725090  20.2260940  40.4450310  10.0219380  21.3606740
  39.9866680  12.7947420  25.8506630  40.2408180  12.7568810  24.9286000
  39.0379160  12.6680750  25.8434880  45.9919260   3.7139300  27.4265140
  45.0509400   3.7289530  27.6012830  46.3063330   2.9275260  27.8725440
  35.9700900   5.3958900  20.9869100  36.7364170   5.2840260  21.5494530
  36.0475590   4.6996870  20.3345870  34.6647660   2.8283970  21.6701990
  34.7451250   1.8811480  21.7819390  35.5567410   3.1590850  21.7762650
  47.9944840  10.8848150  29.1019400  48.1192260  11.7079320  29.5743210
  48.8610400  10.6738880  28.7543550  35.4662370  12.9779360  28.7736530
  36.2024850  12.4294820  29.0445100  35.8503290  13.8435370  28.6342520
  32.3507850   9.0452930  24.6478040  31.4247630   9.2874070  24.6383450
  32.8164280   9.8727190  24.5262790  34.4720650  12.1625430  37.9622110
  35.2733380  12.4837480  38.3757510  33.9572470  11.8021010  38.6842020
  38.5764680  12.1509670  20.5962100  39.3693290  12.4398500  20.1443890
  38.0569030  11.7201840  19.9174580  43.3085280   8.2705300  37.9097520
  42.7023440   8.2936900  37.1693270  43.0039390   7.5388340  38.4464770
  44.7385650  11.9985590  36.5206930  45.6907400  11.9143610  36.4707170
  44.5913870  12.6627300  37.1940720  47.6294850  11.3779800  22.0198840
  47.3436360  10.9644940  21.2053020  47.4314400  12.3067510  21.8999360
  32.1918460   4.6498890  36.9058160  32.6957480   4.0706170  37.4774390
  31.4525880   4.9339120  37.4434530  39.0942080   7.3713080  20.4604450
  38.9892720   6.7565430  21.1865830  38.9266300   6.8478970  19.6767460
  39.2456400   6.0569880  36.4393680  38.4802070   6.6254880  36.3548350
  39.4272360   5.7646090  35.5461910  42.3344810   6.4333110  21.0646440
  41.7854910   6.8802410  21.7089180  42.9564070   5.9282360  21.5884110
  46.3879750   7.7875210  36.9968700  47.1289220   8.1250970  36.4936160
  45.6252430   7.9567270  36.4438470  34.2241540   2.7928480  37.8008230
  34.2646880   2.4942350  38.7093460  35.0787040   3.1936090  37.6415750
  38.0019930   5.3924030  22.9611740  38.4236350   5.2263900  23.8043130
  38.1270770   4.5824260  22.4666880  40.5147570   4.4161640  20.2088840
  41.0353230   3.7010660  19.8429990  41.1615970   5.0547510  20.5089350
  45.0625410   5.8390040  35.5323910  45.4766430   5.9935120  36.3814330
  44.1276410   5.9645260  35.6949690  45.5347580   3.1786200  37.5363060
  46.1168350   2.4238520  37.4483540  45.7109350   3.7093640  36.7594540
  39.8240640   5.7910520  33.5019840  40.2428750   6.6343250  33.3296080
  38.9049270   5.9282560  33.2726620  42.1604540   3.5226700  34.8857680
  42.2800750   2.9267840  35.6252520  43.0198540   3.5596390  34.4658980
  44.4992440   4.0763890  33.4620190  43.9727660   4.6006510  32.8585330
  44.8423780   4.7091280  34.0929920  37.6748060  12.0963530  34.6177570
  37.1369150  12.8209590  34.2986270  37.9282020  11.6193870  33.8274910
  40.5310270  13.3314740  34.8764220  40.4568970  14.2349880  35.1836590
  39.6289110  13.0126640  34.8486290  41.0795600  12.4973250  22.4990580
  41.9746390  12.8358220  22.5209340  41.1113230  11.7752660  21.8714860
  34.7191760   7.8700300  20.7277580  35.1566630   8.4129970  21.3835160
  35.2039490   7.0447250  20.7373920  31.9337560  10.6589330  28.1797840
  32.2640570   9.7910390  27.9476480  32.3628560  10.8647850  29.0102800
  36.5299480   8.9898340  25.8399810  36.2295020   8.8663310  26.7403720
  36.4236970   8.1306930  25.4315540  32.4227770  11.5259920  30.9179470
  31.9858760  11.7060720  31.7503620  32.9905450  12.2834540  30.7761190
  48.0589950  11.0276920  35.2056780  47.4591940  11.0869480  34.4620700
  48.1883850  10.0881900  35.3353630  49.2991400   8.7694740  20.5426490
  48.4684360   8.8371390  21.0133720  49.4763230   9.6598860  20.2393350
  48.7547860   5.5142220  23.0460690  49.5166770   6.0838870  23.1520380
  48.7702230   4.9469420  23.8169000  32.2552200   4.0380150  27.2768350
  31.6001040   3.7691790  26.6328050  33.0930150   3.9284630  26.8270330
  49.7607830   6.3692320  27.8902620  50.1316660   5.5859640  27.4838590
  50.4009760   7.0581420  27.7119920  46.7441590   7.7528900  33.3032940
  45.9301430   8.1826060  33.5658730  47.1515790   8.3647310  32.6901990
  48.8067030   5.8076590  20.2033210  49.0815870   6.7155470  20.0752430
  48.6177770   5.7439120  21.1395200  48.7032370   3.7445580  25.1962640
  48.3275970   2.9773510  24.7643930  47.9735490   4.1268280  25.6837570
  33.2928130   4.4232720  31.8171690  33.6601170   4.3360120  32.6967710
  32.7238950   3.6599270  31.7178550  48.0931990   2.8917100  34.8302160
  47.8618080   2.6629850  33.9300110  48.3536540   3.8116650  34.7847050
  47.9783330   1.9703070  28.4969880  48.5020810   1.4765720  27.8660050
  48.5642750   2.1053430  29.2417450  48.1573050   2.0542940  32.0189430
  47.2075760   2.0206480  32.1334420  48.3386060   2.9643050  31.7839200
  46.8017640  12.5047500  26.8301210  47.3976710  12.1832070  26.1535630
  47.0595790  12.0319320  27.6214480  34.7080210   8.9365410  36.9791840
  34.6649840   8.5658320  37.8606300  34.8391220   9.8742980  37.1193660
  38.4086240  10.4925000  32.5801560  38.1677600  10.7599560  31.6932080
  39.3488880  10.6630730  32.6352420  49.6690400  12.5119380  33.3812200
  49.1748680  12.9088250  32.6639330  49.0603690  11.8868590  33.7749480
  34.5468240  11.8827660  34.0989620  33.9528560  11.7512360  34.8379660
  34.5392080  11.0465800  33.6331720  47.3529850  13.1542800  30.6598940
  46.8932820  13.9058610  30.2856960  46.7242310  12.4349270  30.6013740
  34.1780470   9.2486040  33.0497660  33.4514530   8.6291330  32.9823610
  34.2389620   9.6426650  32.1795740  37.7825570  11.4631040  29.8347070
  38.2990590  10.8518400  29.3095330  38.4322950  11.9659820  30.3258080
  40.5221070  12.3539530  30.6616050  40.8098880  12.0993830  29.7849060
  41.0344290  11.8016890  31.2521620  32.4610470  12.5660430  26.2594420
  32.2932510  11.9331110  26.9576310  31.5944980  12.7719830  25.9088610
  34.0673170  11.2593660  23.7044560  33.5420790  11.6401690  23.0006520
  33.9917750  11.8844430  24.4254270  40.5893430  13.2755630  38.0284250
  41.5160740  13.0399900  38.0720210  40.5743860  14.1027630  37.5470280
  48.8238490  12.8181200  25.0258500  48.9990680  12.1318940  24.3819420
  48.1260060  13.3428250  24.6335170  36.6666140  13.2076040  22.5793810
  37.3984960  12.9235320  22.0317700  36.9259810  12.9689320  23.4693190
  35.8280930   9.3240770  22.5840140  35.1989810   9.7925870  23.1325970
  35.9428760   8.4789990  23.0186330  47.1570990  12.5025490  37.8525290
  47.9496310  12.0074720  37.6451250  47.4504140  13.1815630  38.4600900
  43.2830650   3.3746430   8.7341340  43.2024700   2.4601040   8.4633050
  42.8695070   3.8713500   8.0281050  41.4148690   5.1525450  10.6150610
  40.6390790   4.6725890  10.9049180  42.0661620   4.4731100  10.4406770
  35.4314520   5.4645260  11.4926370  34.5999400   5.2093970  11.8922880
  36.0395500   5.5356030  12.2284290  45.4356120   9.5585640   9.3949740
  44.9737650   8.7872880   9.7236910  46.2481670   9.5851710   9.9002190
  35.4115780   9.4985350  11.6884390  35.7143820   8.6083090  11.5094610
  36.1559370  10.0555570  11.4606640  31.8039480   3.0252800  11.1608460
  32.3755590   2.2575000  11.1612100  31.8041020   3.3241560  10.2515070
  41.6619430  11.8443650   9.0153730  41.0430870  12.3001150   8.4448170
  42.5171210  11.9995110   8.6143430  40.8557680   7.8282640  10.6220770
  40.7865960   6.8872580  10.4609900  41.6177540   7.9184050  11.1943340
  42.5282780   6.7282890   6.4085640  41.9100050   7.1932340   5.8448360
  43.0406030   7.4210370   6.8255150  37.3914540   6.2558760  13.0869240
  37.0583920   6.8827680  13.7290310  37.5681220   6.7820640  12.3070910
  36.6033640   8.2239560  14.9018420  37.2207640   8.8990640  14.6202870
  35.7426760   8.6327540  14.8105920  31.8965980   7.4139420   3.7825270
  31.5193960   7.9026520   3.0510170  32.1539050   8.0864700   4.4131800
  47.5211230   9.6878970  12.8173060  46.8374750  10.3578080  12.8089730
  48.0605520   9.8859620  12.0517920  45.0569970  11.5323100  11.5318240
  45.0697130  11.1285390  10.6640500  44.5045190  12.3070390  11.4279670
  46.3515390   8.2539320   6.6208410  46.2411720   7.3113650   6.7457830
  46.3483640   8.6154960   7.5071170  44.4555410   6.4352940  12.8600850
  44.8724200   6.2213050  12.0254310  45.1795230   6.6925730  13.4309470
  41.8935670   3.8804640   5.9770900  40.9664950   3.8142020   6.2059370
  42.0460490   4.8184770   5.8626140  48.4017510   4.8340160  12.9517090
  47.5736140   4.9033250  12.4767220  48.9967990   5.4194470  12.4832920
  45.9232960   5.4424940   6.4806150  45.3045380   5.1044490   5.8332450
  45.9057410   4.7984700   7.1885340  37.4992310   4.4069380   8.7590630
  37.0949310   3.6946630   8.2636530  37.5855430   4.0622620   9.6478670
  37.9674010   8.0936940  10.9229840  37.6702300   7.4882410  10.2437620
  38.9173830   8.1314250  10.8119200  46.0559620  11.6668810  14.5852940
  45.5790180  12.4741000  14.3925550  45.3721410  11.0147140  14.7379150
  37.0592440   7.8318630  17.5737640  36.1620970   8.0558600  17.8211040
  37.0845310   7.9553570  16.6249040  44.0997660   4.6811750   3.4878900
  44.5390940   3.8434180   3.3416720  44.8126080   5.3141150   3.5743040
  35.8863660   4.7031950  16.1495010  35.7471430   5.5754750  16.5182410
  35.0045020   4.3604760  16.0042950  42.2093040   9.6207820   7.4560140
  42.6488950  10.3632150   7.0415530  42.1479930   9.8634390   8.3799100
  37.6844010  10.6453650  18.3580160  37.6559440  11.0496600  17.4908590
  37.5208980   9.7164010  18.1951760  34.1996940   3.3014360   6.2597280
  34.0794540   4.0276450   5.6478550  33.8897830   2.5317270   5.7825190
  49.6358830  11.4280750  19.6544330  50.1118550  11.9063640  20.3333410
  50.2565990  11.3598240  18.9289830  31.8382310   6.4729500  12.0665920
  31.9162730   6.6078270  11.1221640  32.4523990   5.7645390  12.2594040
  33.0829940   8.1729690   8.4772100  32.6758020   8.3144280   7.6225700
  33.9742950   7.8889850   8.2743310  49.0392080   8.6193600  16.8144340
  49.1655140   8.3805480  15.8961520  49.0813460   7.7878140  17.2866420
  42.9008820  12.3221600  15.3839150  43.4153490  12.2329610  16.1861580
  42.0577900  12.6681300  15.6767060  44.8763220  12.6076940   4.8123150
  44.7164360  12.3179880   5.7104980  44.7109930  11.8317070   4.2768380
  37.3551600  12.3875470   6.5894770  37.1794080  11.4711010   6.3762570
  36.5007340  12.7462760   6.8292570  44.5789350  10.1164500   3.3721150
  43.8854510  10.1141790   2.7123430  45.3212210   9.6923820   2.9415320
  44.1439280  11.7427210   7.4469640  44.5996230  10.9616590   7.7608260
  44.4831800  12.4534030   7.9910820  31.8941830   7.5143670  14.6060380
  32.0572870   7.0449030  13.7879750  32.3594280   7.0067230  15.2709220
  43.0484630   2.2328650  18.4751720  43.3738040   1.3992400  18.1353950
  43.8364960   2.7557170  18.6230050  36.4574820   1.7683000   7.3702200
  36.2315740   1.5520170   8.2748820  35.6767350   2.2011460   7.0248170
  43.6872580   1.7746370   5.9692850  43.0881470   2.4982170   5.7856470
  44.2352190   1.7123150   5.1869300  38.8974030   2.6668580  18.0362470
  38.8017630   1.7263310  17.8862870  39.7406010   2.8883650  17.6410540
  42.8792590   3.0015660  12.0946910  42.1473710   3.5102470  12.4437010
  42.4816930   2.1845640  11.7935690  38.3911630   2.9883080   2.8889460
  37.8228530   2.5401330   2.2625370  39.1000630   3.3475860   2.3554610
  33.4680810   6.8895100  16.7656190  33.0835600   6.2488770  17.3639150
  33.7793000   7.5931220  17.3350920  39.6177950   3.7371640  12.2464810
  39.9848080   3.2630210  12.9926150  39.4283010   4.6113210  12.5873150
  37.4077320   2.7780280  14.5649020  37.1034390   3.6572260  14.7899380
  38.3623780   2.8380070  14.6006460  35.9359110   6.9841270   5.1615870
  35.1621370   6.4438890   5.0014590  36.6653740   6.4647880   4.8233630
  46.6947090   5.9806630  10.9542260  47.4146210   6.4761920  10.5638370
  46.4928910   5.3024520  10.3096130  42.0765890   6.0515690  16.8411260
  42.0103200   5.1311360  16.5868850  41.4471030   6.1491130  17.5555900
  35.9796510   6.6521650   8.7994680  36.4975180   5.8489910   8.7451570
  35.5280530   6.5900790   9.6411510  40.8666010   7.9187930   4.0721980
  41.2081710   8.6630160   3.5765300  40.0378720   8.2319050   4.4346810
  33.4641050   3.6183020  15.7120380  33.1055990   4.2836870  16.2993720
  33.1695610   2.7866570  16.0833000  36.6654170   4.0767260  18.5959930
  36.3654310   4.2224440  17.6987750  37.4365410   3.5172550  18.5033320
  42.0082620   8.8736260  16.5915060  42.0227160   7.9417220  16.3733970
  41.3007720   8.9596020  17.2304830  47.1419690   3.0576080   2.8613670
  47.0583410   3.4890300   2.0110110  47.8613880   3.5174430   3.2940490
  48.2193830   5.5143600  15.9383640  47.4942020   6.1072380  15.7413030
  48.7469290   5.5067140  15.1397010  48.1706940   9.9118340   5.5895800
  47.5283100   9.2573960   5.8639520  47.7837600  10.3173430   4.8136470
  43.7493420   7.2403770   9.4367490  44.1017240   6.6431900   8.7768860
  42.8655750   6.9148000   9.6075740  39.8356700   8.0001460   6.8437900
  40.5227830   8.5470670   7.2245490  39.0489120   8.5442190   6.8787510
  31.9749100   3.6174280   2.3354980  32.8443950   3.8999080   2.6190900
  31.4839420   4.4310150   2.2203790  39.1383910   5.0047490   6.4563260
  39.5946690   5.8152740   6.6823450  38.7872120   4.6870630   7.2881750
  41.4416520  10.5153830  13.6855560  42.0858740  10.7213210  14.3628980
  41.8045960   9.7542230  13.2326410  42.7148600   8.5186180  12.4033010
  43.3570830   7.8179340  12.5165180  43.2397950   9.2984620  12.2229900
  44.4886220   9.3181080  15.6069070  44.8242460   9.9047770  16.2846990
  43.5686560   9.1873790  15.8366860  32.3420350  12.8301660   2.9016610
  32.7017990  13.4291000   2.2473880  32.2012690  13.3761550   3.6751640
  46.1420570   6.7206740   3.7886310  45.8542270   7.1819430   4.5764190
  46.9372740   6.2604510   4.0570530  32.3262210  11.0956520  17.3759010
  32.4353330  10.1551260  17.2354400  31.6742770  11.3611270  16.7272740
  40.3174800   9.3672410  18.7757130  39.9971670   8.6481650  19.3202820
  39.6433160  10.0427480  18.8493190  38.3588970  10.2132860   3.7190280
  38.3499070  10.9462550   3.1034790  37.4387330   9.9664440   3.8117240
  33.9595610   5.4347750   4.4637040  33.3523560   6.1746650   4.4732340
  34.4344960   5.5247110   3.6375240  41.3448570  10.2761100   2.3815470
  41.4460550  10.0725090   1.4517450  40.4450310  10.0219380   2.5863250
  39.9866680  12.7947420   7.0763140  40.2408180  12.7568810   6.1542510
  39.0379160  12.6680750   7.0691390  45.9919260   3.7139300   8.6521650
  45.0509400   3.7289530   8.8269340  46.3063330   2.9275260   9.0981950
  35.9700900   5.3958900   2.2125610  36.7364170   5.2840260   2.7751040
  36.0475590   4.6996870   1.5602380  34.6647660   2.8283970   2.8958500
  34.7451250   1.8811480   3.0075900  35.5567410   3.1590850   3.0019160
  47.9944840  10.8848150  10.3275910  48.1192260  11.7079320  10.7999720
  48.8610400  10.6738880   9.9800060  35.4662370  12.9779360   9.9993040
  36.2024850  12.4294820  10.2701610  35.8503290  13.8435370   9.8599030
  32.3507850   9.0452930   5.8734550  31.4247630   9.2874070   5.8639960
  32.8164280   9.8727190   5.7519300  34.4720650  12.1625430  19.1878620
  35.2733380  12.4837480  19.6014020  33.9572470  11.8021010  19.9098530
  43.3085280   8.2705300  19.1354030  42.7023440   8.2936900  18.3949780
  43.0039390   7.5388340  19.6721280  44.7385650  11.9985590  17.7463440
  45.6907400  11.9143610  17.6963680  44.5913870  12.6627300  18.4197230
  47.6294850  11.3779800   3.2455350  47.3436360  10.9644940   2.4309530
  47.4314400  12.3067510   3.1255870  32.1918460   4.6498890  18.1314670
  32.6957480   4.0706170  18.7030900  31.4525880   4.9339120  18.6691040
  39.2456400   6.0569880  17.6650190  38.4802070   6.6254880  17.5804860
  39.4272360   5.7646090  16.7718420  42.3344810   6.4333110   2.2902950
  41.7854910   6.8802410   2.9345690  42.9564070   5.9282360   2.8140620
  46.3879750   7.7875210  18.2225210  47.1289220   8.1250970  17.7192670
  45.6252430   7.9567270  17.6694980  34.2241540   2.7928480  19.0264740
  34.2646880   2.4942350  19.9349970  35.0787040   3.1936090  18.8672260
  38.0019930   5.3924030   4.1868250  38.4236350   5.2263900   5.0299640
  38.1270770   4.5824260   3.6923390  45.0625410   5.8390040  16.7580420
  45.4766430   5.9935120  17.6070840  44.1276410   5.9645260  16.9206200
  45.5347580   3.1786200  18.7619570  46.1168350   2.4238520  18.6740050
  45.7109350   3.7093640  17.9851050  39.8240640   5.7910520  14.7276350
  40.2428750   6.6343250  14.5552590  38.9049270   5.9282560  14.4983130
  42.1604540   3.5226700  16.1114190  42.2800750   2.9267840  16.8509030
  43.0198540   3.5596390  15.6915490  44.4992440   4.0763890  14.6876700
  43.9727660   4.6006510  14.0841840  44.8423780   4.7091280  15.3186430
  37.6748060  12.0963530  15.8434080  37.1369150  12.8209590  15.5242780
  37.9282020  11.6193870  15.0531420  40.5310270  13.3314740  16.1020730
  40.4568970  14.2349880  16.4093100  39.6289110  13.0126640  16.0742800
  41.0795600  12.4973250   3.7247090  41.9746390  12.8358220   3.7465850
  41.1113230  11.7752660   3.0971370  34.7191760   7.8700300   1.9534090
  35.1566630   8.4129970   2.6091670  35.2039490   7.0447250   1.9630430
  31.9337560  10.6589330   9.4054350  32.2640570   9.7910390   9.1732990
  32.3628560  10.8647850  10.2359310  36.5299480   8.9898340   7.0656320
  36.2295020   8.8663310   7.9660230  36.4236970   8.1306930   6.6572050
  32.4227770  11.5259920  12.1435980  31.9858760  11.7060720  12.9760130
  32.9905450  12.2834540  12.0017700  48.0589950  11.0276920  16.4313290
  47.4591940  11.0869480  15.6877210  48.1883850  10.0881900  16.5610140
  49.2991400   8.7694740   1.7683000  48.4684360   8.8371390   2.2390230
  49.4763230   9.6598860   1.4649860  48.7547860   5.5142220   4.2717200
  49.5166770   6.0838870   4.3776890  48.7702230   4.9469420   5.0425510
  32.2552200   4.0380150   8.5024860  31.6001040   3.7691790   7.8584560
  33.0930150   3.9284630   8.0526840  49.7607830   6.3692320   9.1159130
  50.1316660   5.5859640   8.7095100  50.4009760   7.0581420   8.9376430
  46.7441590   7.7528900  14.5289450  45.9301430   8.1826060  14.7915240
  47.1515790   8.3647310  13.9158500  48.7032370   3.7445580   6.4219150
  48.3275970   2.9773510   5.9900440  47.9735490   4.1268280   6.9094080
  33.2928130   4.4232720  13.0428200  33.6601170   4.3360120  13.9224220
  32.7238950   3.6599270  12.9435060  48.0931990   2.8917100  16.0558670
  47.8618080   2.6629850  15.1556620  48.3536540   3.8116650  16.0103560
  47.9783330   1.9703070   9.7226390  48.5020810   1.4765720   9.0916560
  48.5642750   2.1053430  10.4673960  48.1573050   2.0542940  13.2445940
  47.2075760   2.0206480  13.3590930  48.3386060   2.9643050  13.0095710
  46.8017640  12.5047500   8.0557720  47.3976710  12.1832070   7.3792140
  47.0595790  12.0319320   8.8470990  34.7080210   8.9365410  18.2048350
  34.6649840   8.5658320  19.0862810  34.8391220   9.8742980  18.3450170
  38.4086240  10.4925000  13.8058070  38.1677600  10.7599560  12.9188590
  39.3488880  10.6630730  13.8608930  49.6690400  12.5119380  14.6068710
  49.1748680  12.9088250  13.8895840  49.0603690  11.8868590  15.0005990
  34.5468240  11.8827660  15.3246130  33.9528560  11.7512360  16.0636170
  34.5392080  11.0465800  14.8588230  47.3529850  13.1542800  11.8855450
  46.8932820  13.9058610  11.5113470  46.7242310  12.4349270  11.8270250
  34.1780470   9.2486040  14.2754170  33.4514530   8.6291330  14.2080120
  34.2389620   9.6426650  13.4052250  37.7825570  11.4631040  11.0603580
  38.2990590  10.8518400  10.5351840  38.4322950  11.9659820  11.5514590
  40.5221070  12.3539530  11.8872560  40.8098880  12.0993830  11.0105570
  41.0344290  11.8016890  12.4778130  32.4610470  12.5660430   7.4850930
  32.2932510  11.9331110   8.1832820  31.5944980  12.7719830   7.1345120
  34.0673170  11.2593660   4.9301070  33.5420790  11.6401690   4.2263030
  33.9917750  11.8844430   5.6510780  40.5893430  13.2755630  19.2540760
  41.5160740  13.0399900  19.2976720  40.5743860  14.1027630  18.7726790
  48.8238490  12.8181200   6.2515010  48.9990680  12.1318940   5.6075930
  48.1260060  13.3428250   5.8591680  36.6666140  13.2076040   3.8050320
  37.3984960  12.9235320   3.2574210  36.9259810  12.9689320   4.6949700
  35.8280930   9.3240770   3.8096650  35.1989810   9.7925870   4.3582480
  35.9428760   8.4789990   4.2442840  47.1570990  12.5025490  19.0781800
  47.9496310  12.0074720  18.8707760  47.4504140  13.1815630  19.6857410
  24.5087160  59.6976900  46.2828320  24.4281210  58.7831510  46.0120030
  24.0951580  60.1943970  45.5768030  22.6405200  61.4755920  48.1637590
  21.8647300  60.9956360  48.4536160  23.2918130  60.7961570  47.9893750
  16.6571030  61.7875730  49.0413350  15.8255910  61.5324440  49.4409860
  17.2652010  61.8586500  49.7771270  15.0662980  56.7477620  42.8255740
  14.1779680  57.0893590  42.7235620  15.3504170  56.5477940  41.9336570
  13.0295990  59.3483270  48.7095440  13.6012100  58.5805470  48.7099080
  13.0297530  59.6472030  47.8002050  14.2720860  54.7567630  50.4964370
  14.0923700  53.8593380  50.7767130  13.8700940  55.3039500  51.1711320
  23.1119360  56.9583490  48.3976680  23.4884180  56.0855370  48.2850350
  23.0138870  57.2942190  47.5067120  17.2424370  55.3309120  43.8594120
  17.3491120  56.2312850  44.1662880  16.3316730  55.2827090  43.5688770
  26.8943480  54.4533930  45.3305020  27.7153100  53.9630500  45.3730500
  26.9277560  55.0431590  46.0836860  14.8907530  57.2528130  49.1046710
  15.5717640  57.5166500  49.7234110  14.5755580  56.4129000  49.4384720
  19.0832100  58.2995490  48.1919300  19.5910320  58.7976460  48.8324320
  19.6145340  57.5230690  48.0158660  31.1843030  56.4700680  51.8948650
  30.4795200  56.8582390  51.3763760  31.4500950  57.1650970  52.4969580
  17.3668200  52.9394050  52.4582720  17.3686640  53.4566440  51.6528620
  16.5372510  52.4624230  52.4352650  18.6171050  62.5789230  50.6356220
  18.2840430  63.2058150  51.2777290  18.7937730  63.1051110  49.8557890
  27.1304960  56.3934310  48.1032560  26.4260530  56.6819200  48.6835670
  27.4917120  57.2034420  47.7432120  17.0483530  54.6504010  50.4653170
  17.3900340  55.4946060  50.1707040  16.1099340  54.7987750  50.5818510
  30.1991880  55.8389100  48.4941770  29.2516790  55.8728080  48.6257200
  30.5241870  56.6528050  48.8791130  20.7311420  52.1386280  46.7897760
  21.0386400  51.5833170  46.0733260  19.8012120  52.2730740  46.6070750
  25.6811920  62.7583410  50.4087830  26.0980710  62.5443520  49.5741290
  26.4051740  63.0156200  50.9796450  23.1192180  60.2035110  43.5257880
  22.1921460  60.1372490  43.7546350  23.2717000  61.1415240  43.4113120
  23.1061260  56.4752110  40.5225040  22.1664930  56.6366070  40.6077500
  23.4244520  57.1937790  39.9761030  29.6274020  61.1570630  50.5004070
  28.7992650  61.2263720  50.0254200  30.2224500  61.7424940  50.0319900
  27.1489470  61.7655410  44.0293130  26.5301890  61.4274960  43.3819430
  27.1313920  61.1215170  44.7372320  26.5916030  57.9439950  51.4458940
  26.1787210  58.7693660  51.6998930  25.8591980  57.3584990  51.2535300
  18.7248820  60.7299850  46.3077610  18.3205820  60.0177100  45.8123510
  18.8111940  60.3853090  47.1965650  17.4377440  57.5043060  50.0876650
  17.9892030  57.6138400  49.3129900  17.9520950  57.8780660  50.8031880
  25.3254170  61.0042220  41.0365880  25.7647450  60.1664650  40.8903700
  26.0382590  61.6371620  41.1230020  17.1120170  61.0262420  53.6981990
  16.9727940  61.8985220  54.0669390  16.2301530  60.6835230  53.5529930
  28.9071310  52.2585030  39.3506920  28.5943970  52.3511860  40.2505990
  29.6683780  52.8366060  39.3004350  15.4253450  59.6244830  43.8084260
  15.3051050  60.3506920  43.1965530  15.1154340  58.8547740  43.3312170
  13.0638820  62.7959970  49.6152900  13.1419240  62.9308740  48.6708620
  13.6780500  62.0875860  49.8081020  30.1172600  56.9956530  55.3281060
  29.5016870  57.5036200  54.7996520  29.7969020  56.0954860  55.2707000
  17.8917110  52.9679900  47.1907930  17.4485260  53.7489440  46.8592450
  18.4502100  53.2909790  47.8978870  22.1786920  55.8348420  52.7943250
  21.7166290  56.0431440  53.6063190  21.7765030  55.0207770  52.4913920
  27.1791430  57.0557370  53.9239910  26.3285020  56.7563120  54.2448980
  27.0193220  57.2999380  53.0123730  24.2741140  58.5559120  56.0238700
  24.5994550  57.7222870  55.6840930  25.0621470  59.0787640  56.1717030
  21.0075930  52.5890600  42.0713760  20.3830110  52.5850470  42.7967070
  20.9206050  51.7221560  41.6749730  19.9293010  53.5127230  49.0497530
  20.2265340  54.4190060  48.9689550  20.4778570  53.0246010  48.4357100
  17.6831330  58.0913470  44.9189180  17.4572250  57.8750640  45.8235800
  16.9023860  58.5241930  44.5735150  24.9129090  58.0976840  43.5179830
  24.3137980  58.8212640  43.3343450  25.4608700  58.0353620  42.7356280
  20.1230540  58.9899050  55.5849450  20.0274140  58.0493780  55.4349850
  20.9662520  59.2114120  55.1897520  23.5193960  56.7340380  45.5483110
  23.9123530  57.0512580  44.7351800  23.8810810  55.8552260  45.6627630
  15.2541080  55.4012720  53.7383230  14.8604470  56.2487930  53.9456010
  14.5659480  54.7639090  53.9291870  12.5558130  53.3241180  47.7713310
  12.2671180  53.8944040  48.4838290  13.3003890  52.8445630  48.1344540
  12.7428360  57.2661300  38.9816030  12.6603030  58.2092060  39.1231020
  12.3911420  57.1236210  38.1028380  24.1049100  59.3246130  49.6433890
  23.3730220  59.8332940  49.9923990  23.7073440  58.5076110  49.3422670
  20.5426490  56.0000330  48.0486380  20.5462550  55.5590280  47.1990920
  21.4377610  56.3217660  48.1558200  16.3928870  55.8826820  47.0080590
  16.0528920  56.3602050  47.7647640  15.6306190  55.4291940  46.6481690
  20.6046640  57.0012410  41.0393140  20.7259460  56.9598890  41.9878960
  20.2195150  57.8636560  40.8839870  24.5675010  54.7779810  49.0556830
  24.5847750  55.2288460  49.8998680  24.3190590  53.8785450  49.2690270
  19.6168140  59.3113550  40.4376440  19.0485040  58.8631800  39.8112350
  20.3257140  59.6706330  39.9041590  27.9945760  52.1911990  54.8943210
  28.3191530  51.4601650  55.4201190  28.0302270  51.8725630  53.9924200
  20.8434460  60.0602110  49.7951790  21.2104590  59.5860680  50.5413130
  20.6539520  60.9343680  50.1360130  13.7074950  54.8045800  45.9245260
  13.4221870  54.4401470  46.7623880  13.6453810  54.0726260  45.3108400
  18.6333830  59.1010750  52.1136000  18.3290900  59.9802730  52.3386360
  19.5880290  59.1610540  52.1493440  27.9203600  62.3037100  48.5029240
  28.6402720  62.7992390  48.1125350  27.7185420  61.6254990  47.8583110
  23.3813540  53.6975060  42.6458630  22.5678150  53.1988230  42.5703940
  23.1875490  54.5373310  42.2294980  23.3022400  62.3746160  54.3898240
  23.2359710  61.4541830  54.1355830  22.6727540  62.4721600  55.1042880
  26.0961930  58.0694710  40.9420790  26.9841550  58.3811940  40.7672130
  26.0667020  57.1966960  40.5501370  17.2053020  62.9752120  46.3481660
  17.7231690  62.1720380  46.2938550  16.7537040  62.9131260  47.1898490
  14.6897560  59.9413490  53.2607360  14.3312500  60.6067340  53.8480700
  14.3952120  59.1097040  53.6319980  17.8910680  60.3997730  56.1446910
  17.5910820  60.5454910  55.2474730  18.6621920  59.8403020  56.0520300
  28.3676200  59.3806550  40.4100650  28.2839920  59.8120770  39.5597090
  29.0870390  59.8404900  40.8427470  29.4450340  61.8374070  53.4870620
  28.7198530  62.4302850  53.2900010  29.9725800  61.8297610  52.6883990
  13.2005610  59.9404750  39.8841960  14.0700460  60.2229550  40.1677880
  12.7095930  60.7540620  39.7690770  20.3640420  61.3277960  44.0050240
  20.8203200  62.1383210  44.2310430  20.0128630  61.0101100  44.8368730
  16.2652200  51.6715610  44.4772760  16.1366830  51.6633510  45.4257680
  15.4414220  52.0098700  44.1263770  13.2646130  53.4306730  53.9379460
  12.5504650  53.6303650  54.5432070  13.6841170  52.6546300  54.3094260
  15.1852120  61.7578220  42.0124020  14.5780070  62.4977120  42.0219320
  15.6601470  61.8477580  41.1862220  24.7584910  55.9229040  51.6880910
  25.1265730  55.1024250  52.0160480  23.8983110  55.9830930  52.1036560
  28.1246940  54.8785980  42.4968470  27.4960100  54.9831650  41.7826700
  27.6298860  55.0982760  43.2862350  20.0930970  57.1571930  43.9126350
  19.3847120  57.6258270  44.3539960  20.3775450  56.4993940  44.5471540
  21.7186900  58.5768630  51.9118880  22.2172150  59.0514450  52.5770730
  21.8609850  57.6532150  52.1188910  24.1246400  53.8822590  45.3522140
  24.0014180  53.9008720  44.4031650  25.0730960  53.9301530  45.4720540
  18.2965990  55.4657010  41.2877060  19.1456520  55.9027160  41.2217250
  17.9297260  55.7777270  42.1149120  28.9253760  54.7936590  52.7547270
  28.4227360  55.5341990  53.0941080  29.7410420  55.1820590  52.4384060
  27.2175770  60.0369770  46.2008630  26.2765910  60.0520000  46.3756320
  27.5319840  59.2505730  46.6468930  17.1957410  61.7189370  39.7612590
  17.9620680  61.6070730  40.3238020  17.2732100  61.0227340  39.1089360
  15.8904170  59.1514440  40.4445480  15.9707760  58.2041950  40.5562880
  16.7823920  59.4821320  40.5506140  13.4174970  60.9729360  55.6801650
  13.9213990  60.3936640  56.2517880  12.6782390  61.2569590  56.2178020
  20.4712910  62.3800350  55.2137170  19.7058580  62.9485350  55.1291840
  20.6528870  62.0876560  54.3205400  23.5601320  62.7563580  39.8389930
  23.0111420  63.2032880  40.4832670  24.1820580  62.2512830  40.3627600
  19.2276440  61.7154500  41.7355230  19.6492860  61.5494370  42.5786620
  19.3527280  60.9054730  41.2410370  17.3903860  57.6951050  54.5426210
  16.8600320  57.2042000  53.9149550  18.0591930  58.1235250  54.0084140
  21.7404080  60.7392110  38.9832330  22.2609740  60.0241130  38.6173480
  22.3872480  61.3777980  39.2832840  26.2881920  62.1620510  54.3067400
  26.7022940  62.3165590  55.1557820  25.3532920  62.2875730  54.4693180
  26.7604090  59.5016670  56.3106550  27.3424860  58.7468990  56.2227030
  26.9365860  60.0324110  55.5338030  17.8776160  54.6613420  54.6223500
  17.7833030  54.0434170  53.8974370  17.2973550  55.3879710  54.3953410
  20.6437600  53.2186660  51.6550890  20.1954900  53.2410920  50.8096440
  20.0102800  52.8205680  52.2521190  21.0497150  62.1140990  52.2763330
  21.4685260  62.9573720  52.1039570  20.1305780  62.2513030  52.0470110
  23.3861050  59.8457170  53.6601170  23.5057260  59.2498310  54.3996010
  24.2455050  59.8826860  53.2402470  25.7248950  60.3994360  52.2363680
  25.1984170  60.9236980  51.6328820  26.0680290  61.0321750  52.8673410
  18.1235340  57.7887730  38.6813390  17.9224400  56.9255090  39.0426730
  17.9527390  57.7021090  37.7434990  20.1529820  56.3878520  54.9176990
  20.7429510  56.0794370  55.6054810  19.3350060  55.9158270  55.0736890
  24.9723250  56.0044330  55.1510010  24.2838770  55.3425870  55.0860000
  25.6929270  55.5582600  55.5958470  25.6023650  52.5995960  41.2100270
  25.8825940  51.7563860  41.5659690  24.8289380  52.8319070  41.7239020
  16.9218140  54.8888350  38.6691270  17.2244040  54.8955780  37.7610420
  17.6612730  54.5386210  39.1658930  20.1403070  53.8322970  39.6547470
  19.7925070  53.1546960  39.0749920  20.3415840  53.3712480  40.4690860
  29.9804370  61.8372690  41.8204180  30.7423280  62.4069340  41.9263870
  29.9958740  61.2699890  42.5912490  13.4808710  60.3610620  46.0511840
  12.8257550  60.0922260  45.4071540  14.3186660  60.2515100  45.6013820
  30.0323540  62.1307060  38.9776700  30.3072380  63.0385940  38.8495920
  29.8434280  62.0669590  39.9138690  26.4299150  55.1551910  40.2730330
  26.8484030  54.9682890  39.4326990  26.1235210  54.3030960  40.5833260
  29.9288880  60.0676050  43.9706130  29.5532480  59.3003980  43.5387420
  29.1992000  60.4498750  44.4581060  14.5184640  60.7463190  50.5915180
  14.8857680  60.6590590  51.4711200  13.9495460  59.9829740  50.4922040
  29.3188500  59.2147570  53.6045650  29.0874590  58.9860320  52.7043600
  29.5793050  60.1347120  53.5590540  14.0700640  57.6572280  54.4973600
  13.1756690  57.6239040  54.8367310  14.6098190  57.8559070  55.2624850
  27.7576570  54.4404000  56.3825350  28.6346750  54.4487400  56.7659350
  27.7697410  53.7034840  55.7717700  12.6946790  57.5709550  41.9937170
  11.7910870  57.8339750  41.8188830  13.1787410  57.8420720  41.2137130
  29.2039840  58.2933540  47.2713370  29.7277320  57.7996190  46.6403540
  29.7899260  58.4283900  48.0160940  29.3829560  58.3773410  50.7932920
  28.4332270  58.3436950  50.9077910  29.5642570  59.2873520  50.5582690
  15.2374000  56.6275090  39.9031550  15.9465700  56.2058310  39.4178830
  14.5213940  56.6950320  39.2714900  14.8848160  52.6814420  38.9434200
  15.6076290  53.2223360  39.2615420  15.1572680  52.4077840  38.0675740
  28.6939810  57.5506890  43.2105780  29.1898930  57.3177760  43.9954660
  28.4955880  56.7118730  42.7943420  14.5740350  51.9320610  48.8456820
  15.2216540  51.3817990  48.4051980  14.9942190  52.1863760  49.6672630
  30.1226970  56.1867840  45.7443460  30.0126250  56.0323880  46.6825730
  30.8834560  55.6588780  45.5018870  28.4692690  52.1261970  52.2026460
  29.1064910  52.7396110  52.5685650  28.6167580  52.1622630  51.2575690
  31.0117240  54.0175760  38.9849600  31.9366550  53.8856940  38.7767890
  30.9893030  54.0968580  39.9386050  31.0855730  54.7886420  41.6106310
  30.2907230  54.7231540  42.1399220  31.2899010  55.7237060  41.5991660
  14.3272350  52.0876280  51.5882140  13.9787170  52.5440100  52.3540320
  13.9960050  51.1933410  51.6704570  21.8397170  53.2788160  55.1101560
  21.7786060  53.8709990  55.8596970  22.7797550  53.1714120  54.9651820
  24.4771730  52.9358220  54.7493850  25.0912140  53.2537510  54.0874930
  25.0221290  52.4506810  55.3689710  14.9992990  51.6152480  54.8632910
  15.5475980  51.4340530  54.0999020  15.0648300  50.8246590  55.3989220
  25.2179770  51.4990360  51.0763140  24.3439610  51.8325470  50.8736070
  25.1090520  51.0263540  51.9015010  26.1251750  53.7061230  52.4604860
  25.7965110  52.8912990  52.0806590  27.0734050  53.6631040  52.3370550
  22.9654590  52.4160200  50.0156050  22.1826380  52.8905700  50.2952810
  22.6717520  51.5115030  49.9069230  27.5175660  53.1183300  48.0605140
  27.9583750  53.0628400  47.2126740  27.2483250  54.0341310  48.1315320
  29.3814230  52.7498540  46.0713960  29.3202630  51.8059760  45.9244980
  30.1606260  52.8578630  46.6167420  14.3095000  52.7207680  42.5369770
  15.0674360  52.8336560  41.9633800  13.8472170  53.5576880  42.4913200
  20.8508810  54.8346950  45.5272080  20.0383320  54.4603840  45.1867960
  21.3550450  54.0792030  45.8293270  25.3533790  51.4989400  46.7655150
  25.9563160  52.0709610  47.2403670  24.6126780  52.0628840  46.5429050
  28.4968390  51.9010960  42.0395430  28.6919020  52.7994410  42.3062860
  27.7098260  51.6698040  42.5328380  16.6820150  53.2471730  41.0771740
  17.2112910  52.4601530  40.9479690  17.3148470  53.9262920  41.3107270
  18.8757990  52.9846870  44.1317130  18.2460730  52.2834180  44.2987260
  18.3363130  53.7451000  43.9150290  19.0013550  52.2630850  56.5669620
  18.7197820  52.7664450  55.8030440  19.3833250  51.4652600  56.2011750
  24.5087160  59.6976900  27.5084830  24.4281210  58.7831510  27.2376540
  24.0951580  60.1943970  26.8024540  22.6405200  61.4755920  29.3894100
  21.8647300  60.9956360  29.6792670  23.2918130  60.7961570  29.2150260
  16.6571030  61.7875730  30.2669860  15.8255910  61.5324440  30.6666370
  17.2652010  61.8586500  31.0027780  15.0662980  56.7477620  24.0512250
  14.1779680  57.0893590  23.9492130  15.3504170  56.5477940  23.1593080
  13.0295990  59.3483270  29.9351950  13.6012100  58.5805470  29.9355590
  13.0297530  59.6472030  29.0258560  14.2720860  54.7567630  31.7220880
  14.0923700  53.8593380  32.0023640  13.8700940  55.3039500  32.3967830
  23.1119360  56.9583490  29.6233190  23.4884180  56.0855370  29.5106860
  23.0138870  57.2942190  28.7323630  17.2424370  55.3309120  25.0850630
  17.3491120  56.2312850  25.3919390  16.3316730  55.2827090  24.7945280
  26.8943480  54.4533930  26.5561530  27.7153100  53.9630500  26.5987010
  26.9277560  55.0431590  27.3093370  14.8907530  57.2528130  30.3303220
  15.5717640  57.5166500  30.9490620  14.5755580  56.4129000  30.6641230
  19.0832100  58.2995490  29.4175810  19.5910320  58.7976460  30.0580830
  19.6145340  57.5230690  29.2415170  31.1843030  56.4700680  33.1205160
  30.4795200  56.8582390  32.6020270  31.4500950  57.1650970  33.7226090
  17.3668200  52.9394050  33.6839230  17.3686640  53.4566440  32.8785130
  16.5372510  52.4624230  33.6609160  18.6171050  62.5789230  31.8612730
  18.2840430  63.2058150  32.5033800  18.7937730  63.1051110  31.0814400
  27.1304960  56.3934310  29.3289070  26.4260530  56.6819200  29.9092180
  27.4917120  57.2034420  28.9688630  17.0483530  54.6504010  31.6909680
  17.3900340  55.4946060  31.3963550  16.1099340  54.7987750  31.8075020
  30.1991880  55.8389100  29.7198280  29.2516790  55.8728080  29.8513710
  30.5241870  56.6528050  30.1047640  20.7311420  52.1386280  28.0154270
  21.0386400  51.5833170  27.2989770  19.8012120  52.2730740  27.8327260
  25.6811920  62.7583410  31.6344340  26.0980710  62.5443520  30.7997800
  26.4051740  63.0156200  32.2052960  23.1192180  60.2035110  24.7514390
  22.1921460  60.1372490  24.9802860  23.2717000  61.1415240  24.6369630
  23.1061260  56.4752110  21.7481550  22.1664930  56.6366070  21.8334010
  23.4244520  57.1937790  21.2017540  29.6274020  61.1570630  31.7260580
  28.7992650  61.2263720  31.2510710  30.2224500  61.7424940  31.2576410
  27.1489470  61.7655410  25.2549640  26.5301890  61.4274960  24.6075940
  27.1313920  61.1215170  25.9628830  26.5916030  57.9439950  32.6715450
  26.1787210  58.7693660  32.9255440  25.8591980  57.3584990  32.4791810
  18.7248820  60.7299850  27.5334120  18.3205820  60.0177100  27.0380020
  18.8111940  60.3853090  28.4222160  17.4377440  57.5043060  31.3133160
  17.9892030  57.6138400  30.5386410  17.9520950  57.8780660  32.0288390
  25.3254170  61.0042220  22.2622390  25.7647450  60.1664650  22.1160210
  26.0382590  61.6371620  22.3486530  17.1120170  61.0262420  34.9238500
  16.9727940  61.8985220  35.2925900  16.2301530  60.6835230  34.7786440
  28.9071310  52.2585030  20.5763430  28.5943970  52.3511860  21.4762500
  29.6683780  52.8366060  20.5260860  15.4253450  59.6244830  25.0340770
  15.3051050  60.3506920  24.4222040  15.1154340  58.8547740  24.5568680
  13.0638820  62.7959970  30.8409410  13.1419240  62.9308740  29.8965130
  13.6780500  62.0875860  31.0337530  30.1172600  56.9956530  36.5537570
  29.5016870  57.5036200  36.0253030  29.7969020  56.0954860  36.4963510
  17.8917110  52.9679900  28.4164440  17.4485260  53.7489440  28.0848960
  18.4502100  53.2909790  29.1235380  22.1786920  55.8348420  34.0199760
  21.7166290  56.0431440  34.8319700  21.7765030  55.0207770  33.7170430
  27.1791430  57.0557370  35.1496420  26.3285020  56.7563120  35.4705490
  27.0193220  57.2999380  34.2380240  24.2741140  58.5559120  37.2495210
  24.5994550  57.7222870  36.9097440  25.0621470  59.0787640  37.3973540
  21.0075930  52.5890600  23.2970270  20.3830110  52.5850470  24.0223580
  20.9206050  51.7221560  22.9006240  19.9293010  53.5127230  30.2754040
  20.2265340  54.4190060  30.1946060  20.4778570  53.0246010  29.6613610
  17.6831330  58.0913470  26.1445690  17.4572250  57.8750640  27.0492310
  16.9023860  58.5241930  25.7991660  24.9129090  58.0976840  24.7436340
  24.3137980  58.8212640  24.5599960  25.4608700  58.0353620  23.9612790
  20.1230540  58.9899050  36.8105960  20.0274140  58.0493780  36.6606360
  20.9662520  59.2114120  36.4154030  23.5193960  56.7340380  26.7739620
  23.9123530  57.0512580  25.9608310  23.8810810  55.8552260  26.8884140
  15.2541080  55.4012720  34.9639740  14.8604470  56.2487930  35.1712520
  14.5659480  54.7639090  35.1548380  21.8286130  55.4847690  38.0336480
  21.1384450  55.2919890  38.6682570  22.5718430  55.7682330  38.5660780
  12.5558130  53.3241180  28.9969820  12.2671180  53.8944040  29.7094800
  13.3003890  52.8445630  29.3601050  12.7428360  57.2661300  20.2072540
  12.6603030  58.2092060  20.3487530  12.3911420  57.1236210  19.3284890
  24.1049100  59.3246130  30.8690400  23.3730220  59.8332940  31.2180500
  23.7073440  58.5076110  30.5679180  20.5426490  56.0000330  29.2742890
  20.5462550  55.5590280  28.4247430  21.4377610  56.3217660  29.3814710
  16.3928870  55.8826820  28.2337100  16.0528920  56.3602050  28.9904150
  15.6306190  55.4291940  27.8738200  20.6046640  57.0012410  22.2649650
  20.7259460  56.9598890  23.2135470  20.2195150  57.8636560  22.1096380
  24.5675010  54.7779810  30.2813340  24.5847750  55.2288460  31.1255190
  24.3190590  53.8785450  30.4946780  19.6168140  59.3113550  21.6632950
  19.0485040  58.8631800  21.0368860  20.3257140  59.6706330  21.1298100
  27.9945760  52.1911990  36.1199720  28.3191530  51.4601650  36.6457700
  28.0302270  51.8725630  35.2180710  20.8434460  60.0602110  31.0208300
  21.2104590  59.5860680  31.7669640  20.6539520  60.9343680  31.3616640
  13.7074950  54.8045800  27.1501770  13.4221870  54.4401470  27.9880390
  13.6453810  54.0726260  26.5364910  18.6333830  59.1010750  33.3392510
  18.3290900  59.9802730  33.5642870  19.5880290  59.1610540  33.3749950
  27.9203600  62.3037100  29.7285750  28.6402720  62.7992390  29.3381860
  27.7185420  61.6254990  29.0839620  23.3813540  53.6975060  23.8715140
  22.5678150  53.1988230  23.7960450  23.1875490  54.5373310  23.4551490
  23.3022400  62.3746160  35.6154750  23.2359710  61.4541830  35.3612340
  22.6727540  62.4721600  36.3299390  26.0961930  58.0694710  22.1677300
  26.9841550  58.3811940  21.9928640  26.0667020  57.1966960  21.7757880
  17.2053020  62.9752120  27.5738170  17.7231690  62.1720380  27.5195060
  16.7537040  62.9131260  28.4155000  14.6897560  59.9413490  34.4863870
  14.3312500  60.6067340  35.0737210  14.3952120  59.1097040  34.8576490
  17.8910680  60.3997730  37.3703420  17.5910820  60.5454910  36.4731240
  18.6621920  59.8403020  37.2776810  28.3676200  59.3806550  21.6357160
  28.2839920  59.8120770  20.7853600  29.0870390  59.8404900  22.0683980
  29.4450340  61.8374070  34.7127130  28.7198530  62.4302850  34.5156520
  29.9725800  61.8297610  33.9140500  13.2005610  59.9404750  21.1098470
  14.0700460  60.2229550  21.3934390  12.7095930  60.7540620  20.9947280
  20.3640420  61.3277960  25.2306750  20.8203200  62.1383210  25.4566940
  20.0128630  61.0101100  26.0625240  16.2652200  51.6715610  25.7029270
  16.1366830  51.6633510  26.6514190  15.4414220  52.0098700  25.3520280
  13.2646130  53.4306730  35.1635970  12.5504650  53.6303650  35.7688580
  13.6841170  52.6546300  35.5350770  15.1852120  61.7578220  23.2380530
  14.5780070  62.4977120  23.2475830  15.6601470  61.8477580  22.4118730
  24.7584910  55.9229040  32.9137420  25.1265730  55.1024250  33.2416990
  23.8983110  55.9830930  33.3293070  28.1246940  54.8785980  23.7224980
  27.4960100  54.9831650  23.0083210  27.6298860  55.0982760  24.5118860
  20.0930970  57.1571930  25.1382860  19.3847120  57.6258270  25.5796470
  20.3775450  56.4993940  25.7728050  21.7186900  58.5768630  33.1375390
  22.2172150  59.0514450  33.8027240  21.8609850  57.6532150  33.3445420
  24.1246400  53.8822590  26.5778650  24.0014180  53.9008720  25.6288160
  25.0730960  53.9301530  26.6977050  18.2965990  55.4657010  22.5133570
  19.1456520  55.9027160  22.4473760  17.9297260  55.7777270  23.3405630
  28.9253760  54.7936590  33.9803780  28.4227360  55.5341990  34.3197590
  29.7410420  55.1820590  33.6640570  27.2175770  60.0369770  27.4265140
  26.2765910  60.0520000  27.6012830  27.5319840  59.2505730  27.8725440
  17.1957410  61.7189370  20.9869100  17.9620680  61.6070730  21.5494530
  17.2732100  61.0227340  20.3345870  15.8904170  59.1514440  21.6701990
  15.9707760  58.2041950  21.7819390  16.7823920  59.4821320  21.7762650
  13.4174970  60.9729360  36.9058160  13.9213990  60.3936640  37.4774390
  12.6782390  61.2569590  37.4434530  20.4712910  62.3800350  36.4393680
  19.7058580  62.9485350  36.3548350  20.6528870  62.0876560  35.5461910
  23.5601320  62.7563580  21.0646440  23.0111420  63.2032880  21.7089180
  24.1820580  62.2512830  21.5884110  15.4498050  59.1158950  37.8008230
  15.4903390  58.8172820  38.7093460  16.3043550  59.5166560  37.6415750
  19.2276440  61.7154500  22.9611740  19.6492860  61.5494370  23.8043130
  19.3527280  60.9054730  22.4666880  17.3903860  57.6951050  35.7682720
  16.8600320  57.2042000  35.1406060  18.0591930  58.1235250  35.2340650
  21.7404080  60.7392110  20.2088840  22.2609740  60.0241130  19.8429990
  22.3872480  61.3777980  20.5089350  26.2881920  62.1620510  35.5323910
  26.7022940  62.3165590  36.3814330  25.3532920  62.2875730  35.6949690
  26.7604090  59.5016670  37.5363060  27.3424860  58.7468990  37.4483540
  26.9365860  60.0324110  36.7594540  17.8776160  54.6613420  35.8480010
  17.7833030  54.0434170  35.1230880  17.2973550  55.3879710  35.6209920
  20.6437600  53.2186660  32.8807400  20.1954900  53.2410920  32.0352950
  20.0102800  52.8205680  33.4777700  21.0497150  62.1140990  33.5019840
  21.4685260  62.9573720  33.3296080  20.1305780  62.2513030  33.2726620
  23.3861050  59.8457170  34.8857680  23.5057260  59.2498310  35.6252520
  24.2455050  59.8826860  34.4658980  25.7248950  60.3994360  33.4620190
  25.1984170  60.9236980  32.8585330  26.0680290  61.0321750  34.0929920
  18.1235340  57.7887730  19.9069900  17.9224400  56.9255090  20.2683240
  17.9527390  57.7021090  18.9691500  20.1529820  56.3878520  36.1433500
  20.7429510  56.0794370  36.8311320  19.3350060  55.9158270  36.2993400
  24.9723250  56.0044330  36.3766520  24.2838770  55.3425870  36.3116510
  25.6929270  55.5582600  36.8214980  25.6023650  52.5995960  22.4356780
  25.8825940  51.7563860  22.7916200  24.8289380  52.8319070  22.9495530
  16.9218140  54.8888350  19.8947780  17.2244040  54.8955780  18.9866930
  17.6612730  54.5386210  20.3915440  20.1403070  53.8322970  20.8803980
  19.7925070  53.1546960  20.3006430  20.3415840  53.3712480  21.6947370
  29.9804370  61.8372690  23.0460690  30.7423280  62.4069340  23.1520380
  29.9958740  61.2699890  23.8169000  13.4808710  60.3610620  27.2768350
  12.8257550  60.0922260  26.6328050  14.3186660  60.2515100  26.8270330
  30.0323540  62.1307060  20.2033210  30.3072380  63.0385940  20.0752430
  29.8434280  62.0669590  21.1395200  26.4299150  55.1551910  21.4986840
  26.8484030  54.9682890  20.6583500  26.1235210  54.3030960  21.8089770
  29.9288880  60.0676050  25.1962640  29.5532480  59.3003980  24.7643930
  29.1992000  60.4498750  25.6837570  14.5184640  60.7463190  31.8171690
  14.8857680  60.6590590  32.6967710  13.9495460  59.9829740  31.7178550
  29.3188500  59.2147570  34.8302160  29.0874590  58.9860320  33.9300110
  29.5793050  60.1347120  34.7847050  14.0700640  57.6572280  35.7230110
  13.1756690  57.6239040  36.0623820  14.6098190  57.8559070  36.4881360
  27.7576570  54.4404000  37.6081860  28.6346750  54.4487400  37.9915860
  27.7697410  53.7034840  36.9974210  12.6946790  57.5709550  23.2193680
  11.7910870  57.8339750  23.0445340  13.1787410  57.8420720  22.4393640
  29.2039840  58.2933540  28.4969880  29.7277320  57.7996190  27.8660050
  29.7899260  58.4283900  29.2417450  29.3829560  58.3773410  32.0189430
  28.4332270  58.3436950  32.1334420  29.5642570  59.2873520  31.7839200
  15.2374000  56.6275090  21.1288060  15.9465700  56.2058310  20.6435340
  14.5213940  56.6950320  20.4971410  14.8848160  52.6814420  20.1690710
  15.6076290  53.2223360  20.4871930  15.1572680  52.4077840  19.2932250
  28.6939810  57.5506890  24.4362290  29.1898930  57.3177760  25.2211170
  28.4955880  56.7118730  24.0199930  14.5740350  51.9320610  30.0713330
  15.2216540  51.3817990  29.6308490  14.9942190  52.1863760  30.8929140
  30.1226970  56.1867840  26.9699970  30.0126250  56.0323880  27.9082240
  30.8834560  55.6588780  26.7275380  28.4692690  52.1261970  33.4282970
  29.1064910  52.7396110  33.7942160  28.6167580  52.1622630  32.4832200
  31.0117240  54.0175760  20.2106110  31.9366550  53.8856940  20.0024400
  30.9893030  54.0968580  21.1642560  31.0855730  54.7886420  22.8362820
  30.2907230  54.7231540  23.3655730  31.2899010  55.7237060  22.8248170
  14.3272350  52.0876280  32.8138650  13.9787170  52.5440100  33.5796830
  13.9960050  51.1933410  32.8961080  21.8397170  53.2788160  36.3358070
  21.7786060  53.8709990  37.0853480  22.7797550  53.1714120  36.1908330
  24.4771730  52.9358220  35.9750360  25.0912140  53.2537510  35.3131440
  25.0221290  52.4506810  36.5946220  14.9992990  51.6152480  36.0889420
  15.5475980  51.4340530  35.3255530  15.0648300  50.8246590  36.6245730
  25.2179770  51.4990360  32.3019650  24.3439610  51.8325470  32.0992580
  25.1090520  51.0263540  33.1271520  26.1251750  53.7061230  33.6861370
  25.7965110  52.8912990  33.3063100  27.0734050  53.6631040  33.5627060
  22.9654590  52.4160200  31.2412560  22.1826380  52.8905700  31.5209320
  22.6717520  51.5115030  31.1325740  27.5175660  53.1183300  29.2861650
  27.9583750  53.0628400  28.4383250  27.2483250  54.0341310  29.3571830
  29.3814230  52.7498540  27.2970470  29.3202630  51.8059760  27.1501490
  30.1606260  52.8578630  27.8423930  14.3095000  52.7207680  23.7626280
  15.0674360  52.8336560  23.1890310  13.8472170  53.5576880  23.7169710
  20.8508810  54.8346950  26.7528590  20.0383320  54.4603840  26.4124470
  21.3550450  54.0792030  27.0549780  25.3533790  51.4989400  27.9911660
  25.9563160  52.0709610  28.4660180  24.6126780  52.0628840  27.7685560
  28.4968390  51.9010960  23.2651940  28.6919020  52.7994410  23.5319370
  27.7098260  51.6698040  23.7584890  16.6820150  53.2471730  22.3028250
  17.2112910  52.4601530  22.1736200  17.3148470  53.9262920  22.5363780
  18.8757990  52.9846870  25.3573640  18.2460730  52.2834180  25.5243770
  18.3363130  53.7451000  25.1406800  19.0013550  52.2630850  37.7926130
  18.7197820  52.7664450  37.0286950  19.3833250  51.4652600  37.4268260
  25.6029010  51.6784430  38.3706600  25.4894460  51.9979040  39.2658120
  26.4198750  52.0796940  38.0743880  24.5087160  59.6976900   8.7341340
  24.4281210  58.7831510   8.4633050  24.0951580  60.1943970   8.0281050
  22.6405200  61.4755920  10.6150610  21.8647300  60.9956360  10.9049180
  23.2918130  60.7961570  10.4406770  16.6571030  61.7875730  11.4926370
  15.8255910  61.5324440  11.8922880  17.2652010  61.8586500  12.2284290
  15.0662980  56.7477620   5.2768760  14.1779680  57.0893590   5.1748640
  15.3504170  56.5477940   4.3849590  13.0295990  59.3483270  11.1608460
  13.6012100  58.5805470  11.1612100  13.0297530  59.6472030  10.2515070
  14.2720860  54.7567630  12.9477390  14.0923700  53.8593380  13.2280150
  13.8700940  55.3039500  13.6224340  23.1119360  56.9583490  10.8489700
  23.4884180  56.0855370  10.7363370  23.0138870  57.2942190   9.9580140
  17.2424370  55.3309120   6.3107140  17.3491120  56.2312850   6.6175900
  16.3316730  55.2827090   6.0201790  26.8943480  54.4533930   7.7818040
  27.7153100  53.9630500   7.8243520  26.9277560  55.0431590   8.5349880
  14.8907530  57.2528130  11.5559730  15.5717640  57.5166500  12.1747130
  14.5755580  56.4129000  11.8897740  19.0832100  58.2995490  10.6432320
  19.5910320  58.7976460  11.2837340  19.6145340  57.5230690  10.4671680
  31.1843030  56.4700680  14.3461670  30.4795200  56.8582390  13.8276780
  31.4500950  57.1650970  14.9482600  17.3668200  52.9394050  14.9095740
  17.3686640  53.4566440  14.1041640  16.5372510  52.4624230  14.8865670
  18.6171050  62.5789230  13.0869240  18.2840430  63.2058150  13.7290310
  18.7937730  63.1051110  12.3070910  27.1304960  56.3934310  10.5545580
  26.4260530  56.6819200  11.1348690  27.4917120  57.2034420  10.1945140
  17.0483530  54.6504010  12.9166190  17.3900340  55.4946060  12.6220060
  16.1099340  54.7987750  13.0331530  30.1991880  55.8389100  10.9454790
  29.2516790  55.8728080  11.0770220  30.5241870  56.6528050  11.3304150
  20.7311420  52.1386280   9.2410780  21.0386400  51.5833170   8.5246280
  19.8012120  52.2730740   9.0583770  25.6811920  62.7583410  12.8600850
  26.0980710  62.5443520  12.0254310  26.4051740  63.0156200  13.4309470
  23.1192180  60.2035110   5.9770900  22.1921460  60.1372490   6.2059370
  23.2717000  61.1415240   5.8626140  23.1061260  56.4752110   2.9738060
  22.1664930  56.6366070   3.0590520  23.4244520  57.1937790   2.4274050
  29.6274020  61.1570630  12.9517090  28.7992650  61.2263720  12.4767220
  30.2224500  61.7424940  12.4832920  27.1489470  61.7655410   6.4806150
  26.5301890  61.4274960   5.8332450  27.1313920  61.1215170   7.1885340
  26.5916030  57.9439950  13.8971960  26.1787210  58.7693660  14.1511950
  25.8591980  57.3584990  13.7048320  18.7248820  60.7299850   8.7590630
  18.3205820  60.0177100   8.2636530  18.8111940  60.3853090   9.6478670
  17.4377440  57.5043060  12.5389670  17.9892030  57.6138400  11.7642920
  17.9520950  57.8780660  13.2544900  25.3254170  61.0042220   3.4878900
  25.7647450  60.1664650   3.3416720  26.0382590  61.6371620   3.5743040
  17.1120170  61.0262420  16.1495010  16.9727940  61.8985220  16.5182410
  16.2301530  60.6835230  16.0042950  28.9071310  52.2585030   1.8019940
  28.5943970  52.3511860   2.7019010  29.6683780  52.8366060   1.7517370
  15.4253450  59.6244830   6.2597280  15.3051050  60.3506920   5.6478550
  15.1154340  58.8547740   5.7825190  13.0638820  62.7959970  12.0665920
  13.1419240  62.9308740  11.1221640  13.6780500  62.0875860  12.2594040
  30.1172600  56.9956530  17.7794080  29.5016870  57.5036200  17.2509540
  29.7969020  56.0954860  17.7220020  17.8917110  52.9679900   9.6420950
  17.4485260  53.7489440   9.3105470  18.4502100  53.2909790  10.3491890
  22.1786920  55.8348420  15.2456270  21.7166290  56.0431440  16.0576210
  21.7765030  55.0207770  14.9426940  27.1791430  57.0557370  16.3752930
  26.3285020  56.7563120  16.6962000  27.0193220  57.2999380  15.4636750
  24.2741140  58.5559120  18.4751720  24.5994550  57.7222870  18.1353950
  25.0621470  59.0787640  18.6230050  21.0075930  52.5890600   4.5226780
  20.3830110  52.5850470   5.2480090  20.9206050  51.7221560   4.1262750
  19.9293010  53.5127230  11.5010550  20.2265340  54.4190060  11.4202570
  20.4778570  53.0246010  10.8870120  17.6831330  58.0913470   7.3702200
  17.4572250  57.8750640   8.2748820  16.9023860  58.5241930   7.0248170
  24.9129090  58.0976840   5.9692850  24.3137980  58.8212640   5.7856470
  25.4608700  58.0353620   5.1869300  20.1230540  58.9899050  18.0362470
  20.0274140  58.0493780  17.8862870  20.9662520  59.2114120  17.6410540
  23.5193960  56.7340380   7.9996130  23.9123530  57.0512580   7.1864820
  23.8810810  55.8552260   8.1140650  15.2541080  55.4012720  16.1896250
  14.8604470  56.2487930  16.3969030  14.5659480  54.7639090  16.3804890
  21.8286130  55.4847690  19.2592990  21.1384450  55.2919890  19.8939080
  22.5718430  55.7682330  19.7917290  12.5558130  53.3241180  10.2226330
  12.2671180  53.8944040  10.9351310  13.3003890  52.8445630  10.5857560
  24.1049100  59.3246130  12.0946910  23.3730220  59.8332940  12.4437010
  23.7073440  58.5076110  11.7935690  20.5426490  56.0000330  10.4999400
  20.5462550  55.5590280   9.6503940  21.4377610  56.3217660  10.6071220
  16.3928870  55.8826820   9.4593610  16.0528920  56.3602050  10.2160660
  15.6306190  55.4291940   9.0994710  20.6046640  57.0012410   3.4906160
  20.7259460  56.9598890   4.4391980  20.2195150  57.8636560   3.3352890
  24.5675010  54.7779810  11.5069850  24.5847750  55.2288460  12.3511700
  24.3190590  53.8785450  11.7203290  19.6168140  59.3113550   2.8889460
  19.0485040  58.8631800   2.2625370  20.3257140  59.6706330   2.3554610
  27.9945760  52.1911990  17.3456230  28.3191530  51.4601650  17.8714210
  28.0302270  51.8725630  16.4437220  20.8434460  60.0602110  12.2464810
  21.2104590  59.5860680  12.9926150  20.6539520  60.9343680  12.5873150
  13.7074950  54.8045800   8.3758280  13.4221870  54.4401470   9.2136900
  13.6453810  54.0726260   7.7621420  18.6333830  59.1010750  14.5649020
  18.3290900  59.9802730  14.7899380  19.5880290  59.1610540  14.6006460
  27.9203600  62.3037100  10.9542260  28.6402720  62.7992390  10.5638370
  27.7185420  61.6254990  10.3096130  23.3813540  53.6975060   5.0971650
  22.5678150  53.1988230   5.0216960  23.1875490  54.5373310   4.6808000
  23.3022400  62.3746160  16.8411260  23.2359710  61.4541830  16.5868850
  22.6727540  62.4721600  17.5555900  26.0961930  58.0694710   3.3933810
  26.9841550  58.3811940   3.2185150  26.0667020  57.1966960   3.0014390
  17.2053020  62.9752120   8.7994680  17.7231690  62.1720380   8.7451570
  16.7537040  62.9131260   9.6411510  14.6897560  59.9413490  15.7120380
  14.3312500  60.6067340  16.2993720  14.3952120  59.1097040  16.0833000
  17.8910680  60.3997730  18.5959930  17.5910820  60.5454910  17.6987750
  18.6621920  59.8403020  18.5033320  28.3676200  59.3806550   2.8613670
  28.2839920  59.8120770   2.0110110  29.0870390  59.8404900   3.2940490
  29.4450340  61.8374070  15.9383640  28.7198530  62.4302850  15.7413030
  29.9725800  61.8297610  15.1397010  13.2005610  59.9404750   2.3354980
  14.0700460  60.2229550   2.6190900  12.7095930  60.7540620   2.2203790
  20.3640420  61.3277960   6.4563260  20.8203200  62.1383210   6.6823450
  20.0128630  61.0101100   7.2881750  16.2652200  51.6715610   6.9285780
  16.1366830  51.6633510   7.8770700  15.4414220  52.0098700   6.5776790
  13.2646130  53.4306730  16.3892480  12.5504650  53.6303650  16.9945090
  13.6841170  52.6546300  16.7607280  15.1852120  61.7578220   4.4637040
  14.5780070  62.4977120   4.4732340  15.6601470  61.8477580   3.6375240
  24.7584910  55.9229040  14.1393930  25.1265730  55.1024250  14.4673500
  23.8983110  55.9830930  14.5549580  28.1246940  54.8785980   4.9481490
  27.4960100  54.9831650   4.2339720  27.6298860  55.0982760   5.7375370
  20.0930970  57.1571930   6.3639370  19.3847120  57.6258270   6.8052980
  20.3775450  56.4993940   6.9984560  21.7186900  58.5768630  14.3631900
  22.2172150  59.0514450  15.0283750  21.8609850  57.6532150  14.5701930
  24.1246400  53.8822590   7.8035160  24.0014180  53.9008720   6.8544670
  25.0730960  53.9301530   7.9233560  18.2965990  55.4657010   3.7390080
  19.1456520  55.9027160   3.6730270  17.9297260  55.7777270   4.5662140
  28.9253760  54.7936590  15.2060290  28.4227360  55.5341990  15.5454100
  29.7410420  55.1820590  14.8897080  27.2175770  60.0369770   8.6521650
  26.2765910  60.0520000   8.8269340  27.5319840  59.2505730   9.0981950
  17.1957410  61.7189370   2.2125610  17.9620680  61.6070730   2.7751040
  17.2732100  61.0227340   1.5602380  15.8904170  59.1514440   2.8958500
  15.9707760  58.2041950   3.0075900  16.7823920  59.4821320   3.0019160
  13.4174970  60.9729360  18.1314670  13.9213990  60.3936640  18.7030900
  12.6782390  61.2569590  18.6691040  20.4712910  62.3800350  17.6650190
  19.7058580  62.9485350  17.5804860  20.6528870  62.0876560  16.7718420
  23.5601320  62.7563580   2.2902950  23.0111420  63.2032880   2.9345690
  24.1820580  62.2512830   2.8140620  15.4498050  59.1158950  19.0264740
  15.4903390  58.8172820  19.9349970  16.3043550  59.5166560  18.8672260
  19.2276440  61.7154500   4.1868250  19.6492860  61.5494370   5.0299640
  19.3527280  60.9054730   3.6923390  17.3903860  57.6951050  16.9939230
  16.8600320  57.2042000  16.3662570  18.0591930  58.1235250  16.4597160
  26.2881920  62.1620510  16.7580420  26.7022940  62.3165590  17.6070840
  25.3532920  62.2875730  16.9206200  26.7604090  59.5016670  18.7619570
  27.3424860  58.7468990  18.6740050  26.9365860  60.0324110  17.9851050
  17.8776160  54.6613420  17.0736520  17.7833030  54.0434170  16.3487390
  17.2973550  55.3879710  16.8466430  20.6437600  53.2186660  14.1063910
  20.1954900  53.2410920  13.2609460  20.0102800  52.8205680  14.7034210
  21.0497150  62.1140990  14.7276350  21.4685260  62.9573720  14.5552590
  20.1305780  62.2513030  14.4983130  23.3861050  59.8457170  16.1114190
  23.5057260  59.2498310  16.8509030  24.2455050  59.8826860  15.6915490
  25.7248950  60.3994360  14.6876700  25.1984170  60.9236980  14.0841840
  26.0680290  61.0321750  15.3186430  20.1529820  56.3878520  17.3690010
  20.7429510  56.0794370  18.0567830  19.3350060  55.9158270  17.5249910
  24.9723250  56.0044330  17.6023030  24.2838770  55.3425870  17.5373020
  25.6929270  55.5582600  18.0471490  25.6023650  52.5995960   3.6613290
  25.8825940  51.7563860   4.0172710  24.8289380  52.8319070   4.1752040
  20.1403070  53.8322970   2.1060490  19.7925070  53.1546960   1.5262940
  20.3415840  53.3712480   2.9203880  29.9804370  61.8372690   4.2717200
  30.7423280  62.4069340   4.3776890  29.9958740  61.2699890   5.0425510
  13.4808710  60.3610620   8.5024860  12.8257550  60.0922260   7.8584560
  14.3186660  60.2515100   8.0526840  26.4299150  55.1551910   2.7243350
  26.8484030  54.9682890   1.8840010  26.1235210  54.3030960   3.0346280
  29.9288880  60.0676050   6.4219150  29.5532480  59.3003980   5.9900440
  29.1992000  60.4498750   6.9094080  14.5184640  60.7463190  13.0428200
  14.8857680  60.6590590  13.9224220  13.9495460  59.9829740  12.9435060
  29.3188500  59.2147570  16.0558670  29.0874590  58.9860320  15.1556620
  29.5793050  60.1347120  16.0103560  14.0700640  57.6572280  16.9486620
  13.1756690  57.6239040  17.2880330  14.6098190  57.8559070  17.7137870
  27.7576570  54.4404000  18.8338370  28.6346750  54.4487400  19.2172370
  27.7697410  53.7034840  18.2230720  12.6946790  57.5709550   4.4450190
  11.7910870  57.8339750   4.2701850  13.1787410  57.8420720   3.6650150
  29.2039840  58.2933540   9.7226390  29.7277320  57.7996190   9.0916560
  29.7899260  58.4283900  10.4673960  29.3829560  58.3773410  13.2445940
  28.4332270  58.3436950  13.3590930  29.5642570  59.2873520  13.0095710
  15.2374000  56.6275090   2.3544570  15.9465700  56.2058310   1.8691850
  14.5213940  56.6950320   1.7227920  28.6939810  57.5506890   5.6618800
  29.1898930  57.3177760   6.4467680  28.4955880  56.7118730   5.2456440
  14.5740350  51.9320610  11.2969840  15.2216540  51.3817990  10.8565000
  14.9942190  52.1863760  12.1185650  30.1226970  56.1867840   8.1956480
  30.0126250  56.0323880   9.1338750  30.8834560  55.6588780   7.9531890
  28.4692690  52.1261970  14.6539480  29.1064910  52.7396110  15.0198670
  28.6167580  52.1622630  13.7088710  31.0855730  54.7886420   4.0619330
  30.2907230  54.7231540   4.5912240  31.2899010  55.7237060   4.0504680
  14.3272350  52.0876280  14.0395160  13.9787170  52.5440100  14.8053340
  13.9960050  51.1933410  14.1217590  21.8397170  53.2788160  17.5614580
  21.7786060  53.8709990  18.3109990  22.7797550  53.1714120  17.4164840
  24.4771730  52.9358220  17.2006870  25.0912140  53.2537510  16.5387950
  25.0221290  52.4506810  17.8202730  14.9992990  51.6152480  17.3145930
  15.5475980  51.4340530  16.5512040  15.0648300  50.8246590  17.8502240
  25.2179770  51.4990360  13.5276160  24.3439610  51.8325470  13.3249090
  25.1090520  51.0263540  14.3528030  26.1251750  53.7061230  14.9117880
  25.7965110  52.8912990  14.5319610  27.0734050  53.6631040  14.7883570
  22.9654590  52.4160200  12.4669070  22.1826380  52.8905700  12.7465830
  22.6717520  51.5115030  12.3582250  27.5175660  53.1183300  10.5118160
  27.9583750  53.0628400   9.6639760  27.2483250  54.0341310  10.5828340
  29.3814230  52.7498540   8.5226980  29.3202630  51.8059760   8.3758000
  30.1606260  52.8578630   9.0680440  14.3095000  52.7207680   4.9882790
  15.0674360  52.8336560   4.4146820  13.8472170  53.5576880   4.9426220
  20.8508810  54.8346950   7.9785100  20.0383320  54.4603840   7.6380980
  21.3550450  54.0792030   8.2806290  25.3533790  51.4989400   9.2168170
  25.9563160  52.0709610   9.6916690  24.6126780  52.0628840   8.9942070
  28.4968390  51.9010960   4.4908450  28.6919020  52.7994410   4.7575880
  27.7098260  51.6698040   4.9841400  16.6820150  53.2471730   3.5284760
  17.2112910  52.4601530   3.3992710  17.3148470  53.9262920   3.7620290
  18.8757990  52.9846870   6.5830150  18.2460730  52.2834180   6.7500280
  18.3363130  53.7451000   6.3663310  19.0013550  52.2630850  19.0182640
  18.7197820  52.7664450  18.2543460  19.3833250  51.4652600  18.6524770
  25.6029010  51.6784430  19.5963110  25.4894460  51.9979040  20.4914630
  26.4198750  52.0796940  19.3000390  24.5087160  40.9233410  46.2828320
  24.4281210  40.0088020  46.0120030  24.0951580  41.4200480  45.5768030
  22.6405200  42.7012430  48.1637590  21.8647300  42.2212870  48.4536160
  23.2918130  42.0218080  47.9893750  16.6571030  43.0132240  49.0413350
  15.8255910  42.7580950  49.4409860  17.2652010  43.0843010  49.7771270
  26.6612630  47.1072620  46.9436720  26.1994160  46.3359860  47.2723890
  27.4738180  47.1338690  47.4489170  16.6372290  47.0472330  49.2371370
  16.9400330  46.1570070  49.0581590  17.3815880  47.6042550  49.0093620
  15.0662980  37.9734130  42.8255740  14.1779680  38.3150100  42.7235620
  15.3504170  37.7734450  41.9336570  13.0295990  40.5739780  48.7095440
  13.6012100  39.8061980  48.7099080  13.0297530  40.8728540  47.8002050
  22.8875940  49.3930630  46.5640710  22.2687380  49.8488130  45.9935150
  23.7427720  49.5482090  46.1630410  22.0814190  45.3769620  48.1707750
  22.0122470  44.4359560  48.0096880  22.8434050  45.4671030  48.7430320
  14.2720860  35.9824140  50.4964370  14.0923700  35.0849890  50.7767130
  13.8700940  36.5296010  51.1711320  23.1119360  38.1840000  48.3976680
  23.4884180  37.3111880  48.2850350  23.0138870  38.5198700  47.5067120
  17.2424370  36.5565630  43.8594120  17.3491120  37.4569360  44.1662880
  16.3316730  36.5083600  43.5688770  26.8943480  35.6790440  45.3305020
  27.7153100  35.1887010  45.3730500  26.9277560  36.2688100  46.0836860
  14.8907530  38.4784640  49.1046710  15.5717640  38.7423010  49.7234110
  14.5755580  37.6385510  49.4384720  19.0832100  39.5252000  48.1919300
  19.5910320  40.0232970  48.8324320  19.6145340  38.7487200  48.0158660
  31.1843030  37.6957190  51.8948650  30.4795200  38.0838900  51.3763760
  31.4500950  38.3907480  52.4969580  17.3668200  34.1650560  52.4582720
  17.3686640  34.6822950  51.6528620  16.5372510  33.6880740  52.4352650
  23.7539290  44.2769870  43.9572620  23.1356560  44.7419320  43.3935340
  24.2662540  44.9697350  44.3742130  18.6171050  43.8045740  50.6356220
  18.2840430  44.4314660  51.2777290  18.7937730  44.3307620  49.8557890
  27.1304960  37.6190820  48.1032560  26.4260530  37.9075710  48.6835670
  27.4917120  38.4290930  47.7432120  17.0483530  35.8760520  50.4653170
  17.3900340  36.7202570  50.1707040  16.1099340  36.0244260  50.5818510
  17.8290150  45.7726540  52.4505400  18.4464150  46.4477620  52.1689850
  16.9683270  46.1814520  52.3592900  13.1222490  44.9626400  41.3312250
  12.7450470  45.4513500  40.5997150  13.3795560  45.6351680  41.9618780
  28.7467740  47.2365950  50.3660040  28.0631260  47.9065060  50.3576710
  29.2862030  47.4346600  49.6004900  30.1991880  37.0645610  48.4941770
  29.2516790  37.0984590  48.6257200  30.5241870  37.8784560  48.8791130
  20.7311420  33.3642790  46.7897760  21.0386400  32.8089680  46.0733260
  19.8012120  33.4987250  46.6070750  26.2826480  49.0810080  49.0805220
  26.2953640  48.6772370  48.2127480  25.7301700  49.8557370  48.9766650
  27.5771900  45.8026300  44.1695390  27.4668230  44.8600630  44.2944810
  27.5740150  46.1641940  45.0558150  25.6811920  43.9839920  50.4087830
  26.0980710  43.7700030  49.5741290  26.4051740  44.2412710  50.9796450
  23.1192180  41.4291620  43.5257880  22.1921460  41.3629000  43.7546350
  23.2717000  42.3671750  43.4113120  23.1061260  37.7008620  40.5225040
  22.1664930  37.8622580  40.6077500  23.4244520  38.4194300  39.9761030
  29.6274020  42.3827140  50.5004070  28.7992650  42.4520230  50.0254200
  30.2224500  42.9681450  50.0319900  26.5916030  39.1696460  51.4458940
  26.1787210  39.9950170  51.6998930  25.8591980  38.5841500  51.2535300
  18.7248820  41.9556360  46.3077610  18.3205820  41.2433610  45.8123510
  18.8111940  41.6109600  47.1965650  19.1930520  45.6423920  48.4716820
  18.8958810  45.0369390  47.7924600  20.1430340  45.6801230  48.3606180
  17.4377440  38.7299570  50.0876650  17.9892030  38.8394910  49.3129900
  17.9520950  39.1037170  50.8031880  27.2816130  49.2155790  52.1339920
  26.8046690  50.0227980  51.9412530  26.5977920  48.5634120  52.2866130
  18.2848950  45.3805610  55.1224620  17.3877480  45.6045580  55.3698020
  18.3101820  45.5040550  54.1736020  25.3254170  42.2298730  41.0365880
  25.7647450  41.3921160  40.8903700  26.0382590  42.8628130  41.1230020
  17.1120170  42.2518930  53.6981990  16.9727940  43.1241730  54.0669390
  16.2301530  41.9091740  53.5529930  23.4349550  47.1694800  45.0047120
  23.8745460  47.9119130  44.5902510  23.3736440  47.4121370  45.9286080
  18.9100520  48.1940630  55.9067140  18.8815950  48.5983580  55.0395570
  18.7465490  47.2650990  55.7438740  28.9071310  33.4841540  39.3506920
  28.5943970  33.5768370  40.2505990  29.6683780  34.0622570  39.3004350
  15.4253450  40.8501340  43.8084260  15.3051050  41.5763430  43.1965530
  15.1154340  40.0804250  43.3312170  13.0638820  44.0216480  49.6152900
  13.1419240  44.1565250  48.6708620  13.6780500  43.3132370  49.8081020
  14.3086450  45.7216670  46.0259080  13.9014530  45.8631260  45.1712680
  15.1999460  45.4376830  45.8230290  30.2648590  46.1680580  54.3631320
  30.3911650  45.9292460  53.4448500  30.3069970  45.3365120  54.8353400
  24.1265330  49.8708580  52.9326130  24.6410000  49.7816590  53.7348560
  23.2834410  50.2168280  53.2254040  26.1019730  50.1563920  42.3610130
  25.9420870  49.8666860  43.2591960  25.9366440  49.3804050  41.8255360
  18.5808110  49.9362450  44.1381750  18.4050590  49.0197990  43.9249550
  17.7263850  50.2949740  44.3779550  25.8045860  47.6651480  40.9208130
  25.1111020  47.6628770  40.2610410  26.5468720  47.2410800  40.4902300
  25.3695790  49.2914190  44.9956620  25.8252740  48.5103570  45.3095240
  25.7088310  50.0021010  45.5397800  30.1172600  38.2213040  55.3281060
  29.5016870  38.7292710  54.7996520  29.7969020  37.3211370  55.2707000
  13.1198340  45.0630650  52.1547360  13.2829380  44.5936010  51.3366730
  13.5850790  44.5554210  52.8196200  17.8917110  34.1936410  47.1907930
  17.4485260  34.9745950  46.8592450  18.4502100  34.5166300  47.8978870
  22.1786920  37.0604930  52.7943250  21.7166290  37.2687950  53.6063190
  21.7765030  36.2464280  52.4913920  27.1791430  38.2813880  53.9239910
  26.3285020  37.9819630  54.2448980  27.0193220  38.5255890  53.0123730
  24.2741140  39.7815630  56.0238700  24.5994550  38.9479380  55.6840930
  25.0621470  40.3044150  56.1717030  21.0075930  33.8147110  42.0713760
  20.3830110  33.8106980  42.7967070  20.9206050  32.9478070  41.6749730
  19.9293010  34.7383740  49.0497530  20.2265340  35.6446570  48.9689550
  20.4778570  34.2502520  48.4357100  17.6831330  39.3169980  44.9189180
  17.4572250  39.1007150  45.8235800  16.9023860  39.7498440  44.5735150
  24.9129090  39.3233350  43.5179830  24.3137980  40.0469150  43.3343450
  25.4608700  39.2610130  42.7356280  20.1230540  40.2155560  55.5849450
  20.0274140  39.2750290  55.4349850  20.9662520  40.4370630  55.1897520
  23.5193960  37.9596890  45.5483110  23.9123530  38.2769090  44.7351800
  23.8810810  37.0808770  45.6627630  15.2541080  36.6269230  53.7383230
  14.8604470  37.4744440  53.9456010  14.5659480  35.9895600  53.9291870
  12.5558130  34.5497690  47.7713310  12.2671180  35.1200550  48.4838290
  13.3003890  34.0702140  48.1344540  12.7428360  38.4917810  38.9816030
  12.6603030  39.4348570  39.1231020  12.3911420  38.3492720  38.1028380
  24.1049100  40.5502640  49.6433890  23.3730220  41.0589450  49.9923990
  23.7073440  39.7332620  49.3422670  20.5426490  37.2256840  48.0486380
  20.5462550  36.7846790  47.1990920  21.4377610  37.5474170  48.1558200
  16.3928870  37.1083330  47.0080590  16.0528920  37.5858560  47.7647640
  15.6306190  36.6548450  46.6481690  20.6046640  38.2268920  41.0393140
  20.7259460  38.1855400  41.9878960  20.2195150  39.0893070  40.8839870
  24.5675010  36.0036320  49.0556830  24.5847750  36.4544970  49.8998680
  24.3190590  35.1041960  49.2690270  19.6168140  40.5370060  40.4376440
  19.0485040  40.0888310  39.8112350  20.3257140  40.8962840  39.9041590
  27.9945760  33.4168500  54.8943210  28.3191530  32.6858160  55.4201190
  28.0302270  33.0982140  53.9924200  14.6937320  44.4382080  54.3143170
  14.3092110  43.7975750  54.9126130  15.0049510  45.1418200  54.8837900
  20.8434460  41.2858620  49.7951790  21.2104590  40.8117190  50.5413130
  20.6539520  42.1600190  50.1360130  13.7074950  36.0302310  45.9245260
  13.4221870  35.6657980  46.7623880  13.6453810  35.2982770  45.3108400
  18.6333830  40.3267260  52.1136000  18.3290900  41.2059240  52.3386360
  19.5880290  40.3867050  52.1493440  17.1615620  44.5328250  42.7102850
  16.3877880  43.9925870  42.5501570  17.8910250  44.0134860  42.3720610
  27.9203600  43.5293610  48.5029240  28.6402720  44.0248900  48.1125350
  27.7185420  42.8511500  47.8583110  23.3813540  34.9231570  42.6458630
  22.5678150  34.4244740  42.5703940  23.1875490  35.7629820  42.2294980
  23.3022400  43.6002670  54.3898240  23.2359710  42.6798340  54.1355830
  22.6727540  43.6978110  55.1042880  26.0961930  39.2951220  40.9420790
  26.9841550  39.6068450  40.7672130  26.0667020  38.4223470  40.5501370
  17.2053020  44.2008630  46.3481660  17.7231690  43.3976890  46.2938550
  16.7537040  44.1387770  47.1898490  22.0922520  45.4674910  41.6208960
  22.4338220  46.2117140  41.1252280  21.2635230  45.7806030  41.9833790
  14.6897560  41.1670000  53.2607360  14.3312500  41.8323850  53.8480700
  14.3952120  40.3353550  53.6319980  17.8910680  41.6254240  56.1446910
  17.5910820  41.7711420  55.2474730  18.6621920  41.0659530  56.0520300
  23.2339130  46.4223240  54.1402040  23.2483670  45.4904200  53.9220950
  22.5264230  46.5083000  54.7791810  28.3676200  40.6063060  40.4100650
  28.2839920  41.0377280  39.5597090  29.0870390  41.0661410  40.8427470
  29.4450340  43.0630580  53.4870620  28.7198530  43.6559360  53.2900010
  29.9725800  43.0554120  52.6883990  29.3963450  47.4605320  43.1382780
  28.7539610  46.8060940  43.4126500  29.0094110  47.8660410  42.3623450
  24.9749930  44.7890750  46.9854470  25.3273750  44.1918880  46.3255840
  24.0912260  44.4634980  47.1562720  21.0613210  45.5488440  44.3924880
  21.7484340  46.0957650  44.7732470  20.2745630  46.0929170  44.4274490
  13.2005610  41.1661260  39.8841960  14.0700460  41.4486060  40.1677880
  12.7095930  41.9797130  39.7690770  20.3640420  42.5534470  44.0050240
  20.8203200  43.3639720  44.2310430  20.0128630  42.2357610  44.8368730
  22.6673030  48.0640810  51.2342540  23.3115250  48.2700190  51.9115960
  23.0302470  47.3029210  50.7813390  16.2652200  32.8972120  44.4772760
  16.1366830  32.8890020  45.4257680  15.4414220  33.2355210  44.1263770
  23.9405110  46.0673160  49.9519990  24.5827340  45.3666320  50.0652160
  24.4654460  46.8471600  49.7716880  27.7860830  46.3521780  39.6759130
  27.5598410  45.6352220  40.2683770  27.3957030  46.1034220  38.8380880
  25.7142730  46.8668060  53.1556050  26.0498970  47.4534750  53.8333970
  24.7943070  46.7360770  53.3853840  13.5676860  50.3788640  40.4503590
  13.9274500  50.9777980  39.7960860  13.4269200  50.9248530  41.2238620
  13.2646130  34.6563240  53.9379460  12.5504650  34.8560160  54.5432070
  13.6841170  33.8802810  54.3094260  27.3677080  44.2693720  41.3373290
  27.0798780  44.7306410  42.1251170  28.1629250  43.8091490  41.6057510
  13.5518720  48.6443500  54.9245990  13.6609840  47.7038240  54.7841380
  12.8999280  48.9098250  54.2759720  19.5845480  47.7619840  41.2677260
  19.5755580  48.4949530  40.6521770  18.6643840  47.5151420  41.3604220
  15.1852120  42.9834730  42.0124020  14.5780070  43.7233630  42.0219320
  15.6601470  43.0734090  41.1862220  24.7584910  37.1485550  51.6880910
  25.1265730  36.3280760  52.0160480  23.8983110  37.2087440  52.1036560
  28.1246940  36.1042490  42.4968470  27.4960100  36.2088160  41.7826700
  27.6298860  36.3239270  43.2862350  22.5705080  47.8248080  39.9302450
  22.6717060  47.6212070  39.0004430  21.6706820  47.5706360  40.1350230
  21.7186900  39.8025140  51.9118880  22.2172150  40.2770960  52.5770730
  21.8609850  38.8788660  52.1188910  24.1246400  35.1079100  45.3522140
  24.0014180  35.1265230  44.4031650  25.0730960  35.1558040  45.4720540
  21.2123190  50.3434400  44.6250120  21.4664690  50.3055790  43.7029490
  20.2635670  50.2167730  44.6178370  18.2965990  36.6913520  41.2877060
  19.1456520  37.1283670  41.2217250  17.9297260  37.0033780  42.1149120
  28.9253760  36.0193100  52.7547270  28.4227360  36.7598500  53.0941080
  29.7410420  36.4077100  52.4384060  27.2175770  41.2626280  46.2008630
  26.2765910  41.2776510  46.3756320  27.5319840  40.4762240  46.6468930
  17.1957410  42.9445880  39.7612590  17.9620680  42.8327240  40.3238020
  17.2732100  42.2483850  39.1089360  15.8904170  40.3770950  40.4445480
  15.9707760  39.4298460  40.5562880  16.7823920  40.7077830  40.5506140
  29.2201350  48.4335130  47.8762890  29.3448770  49.2566300  48.3486700
  30.0866910  48.2225860  47.5287040  16.6918880  50.5266340  47.5480020
  17.4281360  49.9781800  47.8188590  17.0759800  51.3922350  47.4086010
  13.5764360  46.5939910  43.4221530  12.6504140  46.8361050  43.4126940
  14.0420790  47.4214170  43.3006280  19.8021190  49.6996650  39.3705590
  20.5949800  49.9885480  38.9187380  19.2825540  49.2688820  38.6918070
  25.9642160  49.5472570  55.2950420  26.9163910  49.4630590  55.2450660
  25.8170380  50.2114280  55.9684210  28.8551360  48.9266780  40.7942330
  28.5692870  48.5131920  39.9796510  28.6570910  49.8554490  40.6742850
  13.4174970  42.1985870  55.6801650  13.9213990  41.6193150  56.2517880
  12.6782390  42.4826100  56.2178020  20.3198590  44.9200060  39.2347940
  20.2149230  44.3052410  39.9609320  20.1522810  44.3965950  38.4510950
  20.4712910  43.6056860  55.2137170  19.7058580  44.1741860  55.1291840
  20.6528870  43.3133070  54.3205400  23.5601320  43.9820090  39.8389930
  23.0111420  44.4289390  40.4832670  24.1820580  43.4769340  40.3627600
  27.6136260  45.3362190  55.7712190  28.3545730  45.6737950  55.2679650
  26.8508940  45.5054250  55.2181960  19.2276440  42.9411010  41.7355230
  19.6492860  42.7750880  42.5786620  19.3527280  42.1311240  41.2410370
  17.3903860  38.9207560  54.5426210  16.8600320  38.4298510  53.9149550
  18.0591930  39.3491760  54.0084140  21.7404080  41.9648620  38.9832330
  22.2609740  41.2497640  38.6173480  22.3872480  42.6034490  39.2832840
  26.2881920  43.3877020  54.3067400  26.7022940  43.5422100  55.1557820
  25.3532920  43.5132240  54.4693180  26.7604090  40.7273180  56.3106550
  27.3424860  39.9725500  56.2227030  26.9365860  41.2580620  55.5338030
  17.8776160  35.8869930  54.6223500  17.7833030  35.2690680  53.8974370
  17.2973550  36.6136220  54.3953410  20.6437600  34.4443170  51.6550890
  20.1954900  34.4667430  50.8096440  20.0102800  34.0462190  52.2521190
  21.0497150  43.3397500  52.2763330  21.4685260  44.1830230  52.1039570
  20.1305780  43.4769540  52.0470110  23.3861050  41.0713680  53.6601170
  23.5057260  40.4754820  54.3996010  24.2455050  41.1083370  53.2402470
  25.7248950  41.6250870  52.2363680  25.1984170  42.1493490  51.6328820
  26.0680290  42.2578260  52.8673410  18.1235340  39.0144240  38.6813390
  17.9224400  38.1511600  39.0426730  17.9527390  38.9277600  37.7434990
  18.9004570  49.6450510  53.3921060  18.3625660  50.3696570  53.0729760
  19.1538530  49.1680850  52.6018400  20.1529820  37.6135030  54.9176990
  20.7429510  37.3050880  55.6054810  19.3350060  37.1414780  55.0736890
  24.9723250  37.2300840  55.1510010  24.2838770  36.5682380  55.0860000
  25.6929270  36.7839110  55.5958470  25.6023650  33.8252470  41.2100270
  25.8825940  32.9820370  41.5659690  24.8289380  34.0575580  41.7239020
  16.9218140  36.1144860  38.6691270  17.2244040  36.1212290  37.7610420
  17.6612730  35.7642720  39.1658930  21.7566780  50.8801720  53.6507710
  21.6825480  51.7836860  53.9580080  20.8545620  50.5613620  53.6229780
  20.1403070  35.0579480  39.6547470  19.7925070  34.3803470  39.0749920
  20.3415840  34.5968990  40.4690860  22.3052110  50.0460230  41.2734070
  23.2002900  50.3845200  41.2952830  22.3369740  49.3239640  40.6458350
  15.9448270  45.4187280  39.5021070  16.3823140  45.9616950  40.1578650
  16.4296000  44.5934230  39.5117410  13.1594070  48.2076310  46.9541330
  13.4897080  47.3397370  46.7219970  13.5885070  48.4134830  47.7846290
  17.7555990  46.5385320  44.6143300  17.4551530  46.4150290  45.5147210
  17.6493480  45.6793910  44.2059030  13.6484280  49.0746900  49.6922960
  13.2115270  49.2547700  50.5247110  14.2161960  49.8321520  49.5504680
  29.2846460  48.5763900  53.9800270  28.6848450  48.6356460  53.2364190
  29.4140360  47.6368880  54.1097120  30.5247910  46.3181720  39.3169980
  29.6940870  46.3858370  39.7877210  30.7019740  47.2085840  39.0136840
  29.9804370  43.0629200  41.8204180  30.7423280  43.6325850  41.9263870
  29.9958740  42.4956400  42.5912490  13.4808710  41.5867130  46.0511840
  12.8257550  41.3178770  45.4071540  14.3186660  41.4771610  45.6013820
  30.9864340  43.9179300  46.6646110  31.3573170  43.1346620  46.2582080
  31.6266270  44.6068400  46.4863410  27.9698100  45.3015880  52.0776430
  27.1557940  45.7313040  52.3402220  28.3772300  45.9134290  51.4645480
  30.0323540  43.3563570  38.9776700  30.3072380  44.2642450  38.8495920
  29.8434280  43.2926100  39.9138690  26.4299150  36.3808420  40.2730330
  26.8484030  36.1939400  39.4326990  26.1235210  35.5287470  40.5833260
  29.9288880  41.2932560  43.9706130  29.5532480  40.5260490  43.5387420
  29.1992000  41.6755260  44.4581060  14.5184640  41.9719700  50.5915180
  14.8857680  41.8847100  51.4711200  13.9495460  41.2086250  50.4922040
  29.3188500  40.4404080  53.6045650  29.0874590  40.2116830  52.7043600
  29.5793050  41.3603630  53.5590540  14.0700640  38.8828790  54.4973600
  13.1756690  38.8495550  54.8367310  14.6098190  39.0815580  55.2624850
  27.7576570  35.6660510  56.3825350  28.6346750  35.6743910  56.7659350
  27.7697410  34.9291350  55.7717700  12.6946790  38.7966060  41.9937170
  11.7910870  39.0596260  41.8188830  13.1787410  39.0677230  41.2137130
  29.2039840  39.5190050  47.2713370  29.7277320  39.0252700  46.6403540
  29.7899260  39.6540410  48.0160940  29.3829560  39.6029920  50.7932920
  28.4332270  39.5693460  50.9077910  29.5642570  40.5130030  50.5582690
  15.2374000  37.8531600  39.9031550  15.9465700  37.4314820  39.4178830
  14.5213940  37.9206830  39.2714900  14.8848160  33.9070930  38.9434200
  15.6076290  34.4479870  39.2615420  15.1572680  33.6334350  38.0675740
  28.6939810  38.7763400  43.2105780  29.1898930  38.5434270  43.9954660
  28.4955880  37.9375240  42.7943420  14.5740350  33.1577120  48.8456820
  15.2216540  32.6074500  48.4051980  14.9942190  33.4120270  49.6672630
  30.1226970  37.4124350  45.7443460  30.0126250  37.2580390  46.6825730
  30.8834560  36.8845290  45.5018870  28.4692690  33.3518480  52.2026460
  29.1064910  33.9652620  52.5685650  28.6167580  33.3879140  51.2575690
  31.0117240  35.2432270  38.9849600  31.9366550  35.1113450  38.7767890
  30.9893030  35.3225090  39.9386050  31.0855730  36.0142930  41.6106310
  30.2907230  35.9488050  42.1399220  31.2899010  36.9493570  41.5991660
  28.0274150  50.0534480  45.6044700  28.6233220  49.7319050  44.9279120
  28.2852300  49.5806300  46.3957970  14.3272350  33.3132790  51.5882140
  13.9787170  33.7696610  52.3540320  13.9960050  32.4189920  51.6704570
  15.9336720  46.4852390  55.7535330  15.8906350  46.1145300  56.6349790
  16.0647730  47.4229960  55.8937150  19.6342750  48.0411980  51.3545050
  19.3934110  48.3086540  50.4675570  20.5745390  48.2117710  51.4095910
  21.8397170  34.5044670  55.1101560  21.7786060  35.0966500  55.8596970
  22.7797550  34.3970630  54.9651820  24.4771730  34.1614730  54.7493850
  25.0912140  34.4794020  54.0874930  25.0221290  33.6763320  55.3689710
  30.8946910  50.0606360  52.1555690  30.4005190  50.4575230  51.4382820
  30.2860200  49.4355570  52.5492970  14.9992990  32.8408990  54.8632910
  15.5475980  32.6597040  54.0999020  15.0648300  32.0503100  55.3989220
  15.7724750  49.4314640  52.8733110  15.1785070  49.2999340  53.6123150
  15.7648590  48.5952780  52.4075210  25.2179770  32.7246870  51.0763140
  24.3439610  33.0581980  50.8736070  25.1090520  32.2520050  51.9015010
  26.1251750  34.9317740  52.4604860  25.7965110  34.1169500  52.0806590
  27.0734050  34.8887550  52.3370550  28.5786360  50.7029780  49.4342430
  28.1189330  51.4545590  49.0600450  27.9498820  49.9836250  49.3757230
  15.4036980  46.7973020  51.8241150  14.6771040  46.1778310  51.7567100
  15.4646130  47.1913630  50.9539230  19.0082080  49.0118020  48.6090560
  19.5247100  48.4005380  48.0838820  19.6579460  49.5146800  49.1001570
  21.7477580  49.9026510  49.4359540  22.0355390  49.6480810  48.5592550
  22.2600800  49.3503870  50.0265110  22.9654590  33.6416710  50.0156050
  22.1826380  34.1162210  50.2952810  22.6717520  32.7371540  49.9069230
  27.5175660  34.3439810  48.0605140  27.9583750  34.2884910  47.2126740
  27.2483250  35.2597820  48.1315320  29.3814230  33.9755050  46.0713960
  29.3202630  33.0316270  45.9244980  30.1606260  34.0835140  46.6167420
  13.6866980  50.1147410  45.0337910  13.5189020  49.4818090  45.7319800
  12.8201490  50.3206810  44.6832100  14.3095000  33.9464190  42.5369770
  15.0674360  34.0593070  41.9633800  13.8472170  34.7833390  42.4913200
  20.8508810  36.0603460  45.5272080  20.0383320  35.6860350  45.1867960
  21.3550450  35.3048540  45.8293270  25.3533790  32.7245910  46.7655150
  25.9563160  33.2966120  47.2403670  24.6126780  33.2885350  46.5429050
  28.4968390  33.1267470  42.0395430  28.6919020  34.0250920  42.3062860
  27.7098260  32.8954550  42.5328380  15.2929680  48.8080640  42.4788050
  14.7677300  49.1888670  41.7750010  15.2174260  49.4331410  43.1997760
  16.6820150  34.4728240  41.0771740  17.2112910  33.6858040  40.9479690
  17.3148470  35.1519430  41.3107270  18.8757990  34.2103380  44.1317130
  18.2460730  33.5090690  44.2987260  18.3363130  34.9707510  43.9150290
  30.0495000  50.3668180  43.8001990  30.2247190  49.6805920  43.1562910
  29.3516570  50.8915230  43.4078660  19.0013550  33.4887360  56.5669620
  18.7197820  33.9920960  55.8030440  19.3833250  32.6909110  56.2011750
  17.8922650  50.7563020  41.3537300  18.6241470  50.4722300  40.8061190
  18.1516320  50.5176300  42.2436680  17.0537440  46.8727750  41.3583630
  16.4246320  47.3412850  41.9069460  17.1685270  46.0276970  41.7929820
  22.6405200  42.7012430  29.3894100  21.8647300  42.2212870  29.6792670
  23.2918130  42.0218080  29.2150260  16.6571030  43.0132240  30.2669860
  15.8255910  42.7580950  30.6666370  17.2652010  43.0843010  31.0027780
  26.6612630  47.1072620  28.1693230  26.1994160  46.3359860  28.4980400
  27.4738180  47.1338690  28.6745680  16.6372290  47.0472330  30.4627880
  16.9400330  46.1570070  30.2838100  17.3815880  47.6042550  30.2350130
  15.0662980  37.9734130  24.0512250  14.1779680  38.3150100  23.9492130
  15.3504170  37.7734450  23.1593080  13.0295990  40.5739780  29.9351950
  13.6012100  39.8061980  29.9355590  13.0297530  40.8728540  29.0258560
  22.8875940  49.3930630  27.7897220  22.2687380  49.8488130  27.2191660
  23.7427720  49.5482090  27.3886920  14.2720860  35.9824140  31.7220880
  14.0923700  35.0849890  32.0023640  13.8700940  36.5296010  32.3967830
  17.2424370  36.5565630  25.0850630  17.3491120  37.4569360  25.3919390
  16.3316730  36.5083600  24.7945280  14.8907530  38.4784640  30.3303220
  15.5717640  38.7423010  30.9490620  14.5755580  37.6385510  30.6641230
  19.0832100  39.5252000  29.4175810  19.5910320  40.0232970  30.0580830
  19.6145340  38.7487200  29.2415170  17.3668200  34.1650560  33.6839230
  17.3686640  34.6822950  32.8785130  16.5372510  33.6880740  33.6609160
  23.7539290  44.2769870  25.1829130  23.1356560  44.7419320  24.6191850
  24.2662540  44.9697350  25.5998640  18.6171050  43.8045740  31.8612730
  18.2840430  44.4314660  32.5033800  18.7937730  44.3307620  31.0814400
  17.0483530  35.8760520  31.6909680  17.3900340  36.7202570  31.3963550
  16.1099340  36.0244260  31.8075020  17.8290150  45.7726540  33.6761910
  18.4464150  46.4477620  33.3946360  16.9683270  46.1814520  33.5849410
  13.1222490  44.9626400  22.5568760  12.7450470  45.4513500  21.8253660
  13.3795560  45.6351680  23.1875290  28.7467740  47.2365950  31.5916550
  28.0631260  47.9065060  31.5833220  29.2862030  47.4346600  30.8261410
  20.7311420  33.3642790  28.0154270  21.0386400  32.8089680  27.2989770
  19.8012120  33.4987250  27.8327260  26.2826480  49.0810080  30.3061730
  26.2953640  48.6772370  29.4383990  25.7301700  49.8557370  30.2023160
  27.5771900  45.8026300  25.3951900  27.4668230  44.8600630  25.5201320
  27.5740150  46.1641940  26.2814660  25.6811920  43.9839920  31.6344340
  26.0980710  43.7700030  30.7997800  26.4051740  44.2412710  32.2052960
  23.1192180  41.4291620  24.7514390  22.1921460  41.3629000  24.9802860
  23.2717000  42.3671750  24.6369630  23.1061260  37.7008620  21.7481550
  22.1664930  37.8622580  21.8334010  23.4244520  38.4194300  21.2017540
  18.7248820  41.9556360  27.5334120  18.3205820  41.2433610  27.0380020
  18.8111940  41.6109600  28.4222160  19.1930520  45.6423920  29.6973330
  18.8958810  45.0369390  29.0181110  20.1430340  45.6801230  29.5862690
  17.4377440  38.7299570  31.3133160  17.9892030  38.8394910  30.5386410
  17.9520950  39.1037170  32.0288390  27.2816130  49.2155790  33.3596430
  26.8046690  50.0227980  33.1669040  26.5977920  48.5634120  33.5122640
  18.2848950  45.3805610  36.3481130  17.3877480  45.6045580  36.5954530
  18.3101820  45.5040550  35.3992530  25.3254170  42.2298730  22.2622390
  25.7647450  41.3921160  22.1160210  26.0382590  42.8628130  22.3486530
  17.1120170  42.2518930  34.9238500  16.9727940  43.1241730  35.2925900
  16.2301530  41.9091740  34.7786440  23.4349550  47.1694800  26.2303630
  23.8745460  47.9119130  25.8159020  23.3736440  47.4121370  27.1542590
  18.9100520  48.1940630  37.1323650  18.8815950  48.5983580  36.2652080
  18.7465490  47.2650990  36.9695250  28.9071310  33.4841540  20.5763430
  28.5943970  33.5768370  21.4762500  29.6683780  34.0622570  20.5260860
  15.4253450  40.8501340  25.0340770  15.3051050  41.5763430  24.4222040
  15.1154340  40.0804250  24.5568680  13.0638820  44.0216480  30.8409410
  13.1419240  44.1565250  29.8965130  13.6780500  43.3132370  31.0337530
  14.3086450  45.7216670  27.2515590  13.9014530  45.8631260  26.3969190
  15.1999460  45.4376830  27.0486800  30.2648590  46.1680580  35.5887830
  30.3911650  45.9292460  34.6705010  30.3069970  45.3365120  36.0609910
  24.1265330  49.8708580  34.1582640  24.6410000  49.7816590  34.9605070
  23.2834410  50.2168280  34.4510550  26.1019730  50.1563920  23.5866640
  25.9420870  49.8666860  24.4848470  25.9366440  49.3804050  23.0511870
  18.5808110  49.9362450  25.3638260  18.4050590  49.0197990  25.1506060
  17.7263850  50.2949740  25.6036060  25.8045860  47.6651480  22.1464640
  25.1111020  47.6628770  21.4866920  26.5468720  47.2410800  21.7158810
  25.3695790  49.2914190  26.2213130  25.8252740  48.5103570  26.5351750
  25.7088310  50.0021010  26.7654310  30.1172600  38.2213040  36.5537570
  29.5016870  38.7292710  36.0253030  29.7969020  37.3211370  36.4963510
  13.1198340  45.0630650  33.3803870  13.2829380  44.5936010  32.5623240
  13.5850790  44.5554210  34.0452710  17.8917110  34.1936410  28.4164440
  17.4485260  34.9745950  28.0848960  18.4502100  34.5166300  29.1235380
  24.2741140  39.7815630  37.2495210  24.5994550  38.9479380  36.9097440
  25.0621470  40.3044150  37.3973540  21.0075930  33.8147110  23.2970270
  20.3830110  33.8106980  24.0223580  20.9206050  32.9478070  22.9006240
  19.9293010  34.7383740  30.2754040  20.2265340  35.6446570  30.1946060
  20.4778570  34.2502520  29.6613610  17.6831330  39.3169980  26.1445690
  17.4572250  39.1007150  27.0492310  16.9023860  39.7498440  25.7991660
  20.1230540  40.2155560  36.8105960  20.0274140  39.2750290  36.6606360
  20.9662520  40.4370630  36.4154030  15.2541080  36.6269230  34.9639740
  14.8604470  37.4744440  35.1712520  14.5659480  35.9895600  35.1548380
  21.8286130  36.7104200  38.0336480  21.1384450  36.5176400  38.6682570
  22.5718430  36.9938840  38.5660780  12.5558130  34.5497690  28.9969820
  12.2671180  35.1200550  29.7094800  13.3003890  34.0702140  29.3601050
  12.7428360  38.4917810  20.2072540  12.6603030  39.4348570  20.3487530
  12.3911420  38.3492720  19.3284890  20.5426490  37.2256840  29.2742890
  20.5462550  36.7846790  28.4247430  21.4377610  37.5474170  29.3814710
  16.3928870  37.1083330  28.2337100  16.0528920  37.5858560  28.9904150
  15.6306190  36.6548450  27.8738200  20.6046640  38.2268920  22.2649650
  20.7259460  38.1855400  23.2135470  20.2195150  39.0893070  22.1096380
  19.6168140  40.5370060  21.6632950  19.0485040  40.0888310  21.0368860
  20.3257140  40.8962840  21.1298100  14.6937320  44.4382080  35.5399680
  14.3092110  43.7975750  36.1382640  15.0049510  45.1418200  36.1094410
  20.8434460  41.2858620  31.0208300  21.2104590  40.8117190  31.7669640
  20.6539520  42.1600190  31.3616640  13.7074950  36.0302310  27.1501770
  13.4221870  35.6657980  27.9880390  13.6453810  35.2982770  26.5364910
  18.6333830  40.3267260  33.3392510  18.3290900  41.2059240  33.5642870
  19.5880290  40.3867050  33.3749950  17.1615620  44.5328250  23.9359360
  16.3877880  43.9925870  23.7758080  17.8910250  44.0134860  23.5977120
  26.0961930  39.2951220  22.1677300  26.9841550  39.6068450  21.9928640
  26.0667020  38.4223470  21.7757880  17.2053020  44.2008630  27.5738170
  17.7231690  43.3976890  27.5195060  16.7537040  44.1387770  28.4155000
  22.0922520  45.4674910  22.8465470  22.4338220  46.2117140  22.3508790
  21.2635230  45.7806030  23.2090300  14.6897560  41.1670000  34.4863870
  14.3312500  41.8323850  35.0737210  14.3952120  40.3353550  34.8576490
  17.8910680  41.6254240  37.3703420  17.5910820  41.7711420  36.4731240
  18.6621920  41.0659530  37.2776810  23.2339130  46.4223240  35.3658550
  23.2483670  45.4904200  35.1477460  22.5264230  46.5083000  36.0048320
  29.4450340  43.0630580  34.7127130  28.7198530  43.6559360  34.5156520
  29.9725800  43.0554120  33.9140500  29.3963450  47.4605320  24.3639290
  28.7539610  46.8060940  24.6383010  29.0094110  47.8660410  23.5879960
  24.9749930  44.7890750  28.2110980  25.3273750  44.1918880  27.5512350
  24.0912260  44.4634980  28.3819230  21.0613210  45.5488440  25.6181390
  21.7484340  46.0957650  25.9988980  20.2745630  46.0929170  25.6531000
  13.2005610  41.1661260  21.1098470  14.0700460  41.4486060  21.3934390
  12.7095930  41.9797130  20.9947280  20.3640420  42.5534470  25.2306750
  20.8203200  43.3639720  25.4566940  20.0128630  42.2357610  26.0625240
  22.6673030  48.0640810  32.4599050  23.3115250  48.2700190  33.1372470
  23.0302470  47.3029210  32.0069900  16.2652200  32.8972120  25.7029270
  16.1366830  32.8890020  26.6514190  15.4414220  33.2355210  25.3520280
  23.9405110  46.0673160  31.1776500  24.5827340  45.3666320  31.2908670
  24.4654460  46.8471600  30.9973390  27.7860830  46.3521780  20.9015640
  27.5598410  45.6352220  21.4940280  27.3957030  46.1034220  20.0637390
  25.7142730  46.8668060  34.3812560  26.0498970  47.4534750  35.0590480
  24.7943070  46.7360770  34.6110350  13.5676860  50.3788640  21.6760100
  13.9274500  50.9777980  21.0217370  13.4269200  50.9248530  22.4495130
  13.2646130  34.6563240  35.1635970  12.5504650  34.8560160  35.7688580
  13.6841170  33.8802810  35.5350770  27.3677080  44.2693720  22.5629800
  27.0798780  44.7306410  23.3507680  28.1629250  43.8091490  22.8314020
  13.5518720  48.6443500  36.1502500  13.6609840  47.7038240  36.0097890
  12.8999280  48.9098250  35.5016230  21.5431310  46.9159390  37.5500620
  21.2228180  46.1968630  38.0946310  20.8689670  47.5914460  37.6236680
  19.5845480  47.7619840  22.4933770  19.5755580  48.4949530  21.8778280
  18.6643840  47.5151420  22.5860730  22.5705080  47.8248080  21.1558960
  22.6717060  47.6212070  20.2260940  21.6706820  47.5706360  21.3606740
  20.0930970  38.3828440  25.1382860  19.3847120  38.8514780  25.5796470
  20.3775450  37.7250450  25.7728050  21.2123190  50.3434400  25.8506630
  21.4664690  50.3055790  24.9286000  20.2635670  50.2167730  25.8434880
  18.2965990  36.6913520  22.5133570  19.1456520  37.1283670  22.4473760
  17.9297260  37.0033780  23.3405630  17.1957410  42.9445880  20.9869100
  17.9620680  42.8327240  21.5494530  17.2732100  42.2483850  20.3345870
  15.8904170  40.3770950  21.6701990  15.9707760  39.4298460  21.7819390
  16.7823920  40.7077830  21.7762650  29.2201350  48.4335130  29.1019400
  29.3448770  49.2566300  29.5743210  30.0866910  48.2225860  28.7543550
  16.6918880  50.5266340  28.7736530  17.4281360  49.9781800  29.0445100
  17.0759800  51.3922350  28.6342520  13.5764360  46.5939910  24.6478040
  12.6504140  46.8361050  24.6383450  14.0420790  47.4214170  24.5262790
  15.6977160  49.7112410  37.9622110  16.4989890  50.0324460  38.3757510
  15.1828980  49.3507990  38.6842020  19.8021190  49.6996650  20.5962100
  20.5949800  49.9885480  20.1443890  19.2825540  49.2688820  19.9174580
  24.5341790  45.8192280  37.9097520  23.9279950  45.8423880  37.1693270
  24.2295900  45.0875320  38.4464770  25.9642160  49.5472570  36.5206930
  26.9163910  49.4630590  36.4707170  25.8170380  50.2114280  37.1940720
  28.8551360  48.9266780  22.0198840  28.5692870  48.5131920  21.2053020
  28.6570910  49.8554490  21.8999360  13.4174970  42.1985870  36.9058160
  13.9213990  41.6193150  37.4774390  12.6782390  42.4826100  37.4434530
  20.3198590  44.9200060  20.4604450  20.2149230  44.3052410  21.1865830
  20.1522810  44.3965950  19.6767460  20.4712910  43.6056860  36.4393680
  19.7058580  44.1741860  36.3548350  20.6528870  43.3133070  35.5461910
  23.5601320  43.9820090  21.0646440  23.0111420  44.4289390  21.7089180
  24.1820580  43.4769340  21.5884110  27.6136260  45.3362190  36.9968700
  28.3545730  45.6737950  36.4936160  26.8508940  45.5054250  36.4438470
  15.4498050  40.3415460  37.8008230  15.4903390  40.0429330  38.7093460
  16.3043550  40.7423070  37.6415750  19.2276440  42.9411010  22.9611740
  19.6492860  42.7750880  23.8043130  19.3527280  42.1311240  22.4666880
  17.3903860  38.9207560  35.7682720  16.8600320  38.4298510  35.1406060
  18.0591930  39.3491760  35.2340650  21.7404080  41.9648620  20.2088840
  22.2609740  41.2497640  19.8429990  22.3872480  42.6034490  20.5089350
  26.2881920  43.3877020  35.5323910  26.7022940  43.5422100  36.3814330
  25.3532920  43.5132240  35.6949690  26.7604090  40.7273180  37.5363060
  27.3424860  39.9725500  37.4483540  26.9365860  41.2580620  36.7594540
  20.6437600  34.4443170  32.8807400  20.1954900  34.4667430  32.0352950
  20.0102800  34.0462190  33.4777700  21.0497150  43.3397500  33.5019840
  21.4685260  44.1830230  33.3296080  20.1305780  43.4769540  33.2726620
  23.3861050  41.0713680  34.8857680  23.5057260  40.4754820  35.6252520
  24.2455050  41.1083370  34.4658980  18.1235340  39.0144240  19.9069900
  17.9224400  38.1511600  20.2683240  17.9527390  38.9277600  18.9691500
  18.9004570  49.6450510  34.6177570  18.3625660  50.3696570  34.2986270
  19.1538530  49.1680850  33.8274910  20.1529820  37.6135030  36.1433500
  20.7429510  37.3050880  36.8311320  19.3350060  37.1414780  36.2993400
  16.9218140  36.1144860  19.8947780  17.2244040  36.1212290  18.9866930
  17.6612730  35.7642720  20.3915440  21.7566780  50.8801720  34.8764220
  21.6825480  51.7836860  35.1836590  20.8545620  50.5613620  34.8486290
  20.1403070  35.0579480  20.8803980  19.7925070  34.3803470  20.3006430
  20.3415840  34.5968990  21.6947370  22.3052110  50.0460230  22.4990580
  23.2002900  50.3845200  22.5209340  22.3369740  49.3239640  21.8714860
  15.9448270  45.4187280  20.7277580  16.3823140  45.9616950  21.3835160
  16.4296000  44.5934230  20.7373920  13.1594070  48.2076310  28.1797840
  13.4897080  47.3397370  27.9476480  13.5885070  48.4134830  29.0102800
  17.7555990  46.5385320  25.8399810  17.4551530  46.4150290  26.7403720
  17.6493480  45.6793910  25.4315540  13.6484280  49.0746900  30.9179470
  13.2115270  49.2547700  31.7503620  14.2161960  49.8321520  30.7761190
  29.2846460  48.5763900  35.2056780  28.6848450  48.6356460  34.4620700
  29.4140360  47.6368880  35.3353630  30.5247910  46.3181720  20.5426490
  29.6940870  46.3858370  21.0133720  30.7019740  47.2085840  20.2393350
  29.9804370  43.0629200  23.0460690  30.7423280  43.6325850  23.1520380
  29.9958740  42.4956400  23.8169000  13.4808710  41.5867130  27.2768350
  12.8257550  41.3178770  26.6328050  14.3186660  41.4771610  26.8270330
  30.9864340  43.9179300  27.8902620  31.3573170  43.1346620  27.4838590
  31.6266270  44.6068400  27.7119920  27.9698100  45.3015880  33.3032940
  27.1557940  45.7313040  33.5658730  28.3772300  45.9134290  32.6901990
  30.0323540  43.3563570  20.2033210  30.3072380  44.2642450  20.0752430
  29.8434280  43.2926100  21.1395200  26.4299150  36.3808420  21.4986840
  26.8484030  36.1939400  20.6583500  26.1235210  35.5287470  21.8089770
  14.5184640  41.9719700  31.8171690  14.8857680  41.8847100  32.6967710
  13.9495460  41.2086250  31.7178550  29.3188500  40.4404080  34.8302160
  29.0874590  40.2116830  33.9300110  29.5793050  41.3603630  34.7847050
  14.0700640  38.8828790  35.7230110  13.1756690  38.8495550  36.0623820
  14.6098190  39.0815580  36.4881360  27.7576570  35.6660510  37.6081860
  28.6346750  35.6743910  37.9915860  27.7697410  34.9291350  36.9974210
  12.6946790  38.7966060  23.2193680  11.7910870  39.0596260  23.0445340
  13.1787410  39.0677230  22.4393640  15.2374000  37.8531600  21.1288060
  15.9465700  37.4314820  20.6435340  14.5213940  37.9206830  20.4971410
  14.8848160  33.9070930  20.1690710  15.6076290  34.4479870  20.4871930
  15.1572680  33.6334350  19.2932250  14.5740350  33.1577120  30.0713330
  15.2216540  32.6074500  29.6308490  14.9942190  33.4120270  30.8929140
  14.3272350  33.3132790  32.8138650  13.9787170  33.7696610  33.5796830
  13.9960050  32.4189920  32.8961080  15.9336720  46.4852390  36.9791840
  15.8906350  46.1145300  37.8606300  16.0647730  47.4229960  37.1193660
  19.6342750  48.0411980  32.5801560  19.3934110  48.3086540  31.6932080
  20.5745390  48.2117710  32.6352420  30.8946910  50.0606360  33.3812200
  30.4005190  50.4575230  32.6639330  30.2860200  49.4355570  33.7749480
  14.9992990  32.8408990  36.0889420  15.5475980  32.6597040  35.3255530
  15.0648300  32.0503100  36.6245730  15.7724750  49.4314640  34.0989620
  15.1785070  49.2999340  34.8379660  15.7648590  48.5952780  33.6331720
  28.5786360  50.7029780  30.6598940  28.1189330  51.4545590  30.2856960
  27.9498820  49.9836250  30.6013740  15.4036980  46.7973020  33.0497660
  14.6771040  46.1778310  32.9823610  15.4646130  47.1913630  32.1795740
  19.0082080  49.0118020  29.8347070  19.5247100  48.4005380  29.3095330
  19.6579460  49.5146800  30.3258080  21.7477580  49.9026510  30.6616050
  22.0355390  49.6480810  29.7849060  22.2600800  49.3503870  31.2521620
  13.6866980  50.1147410  26.2594420  13.5189020  49.4818090  26.9576310
  12.8201490  50.3206810  25.9088610  14.3095000  33.9464190  23.7626280
  15.0674360  34.0593070  23.1890310  13.8472170  34.7833390  23.7169710
  20.8508810  36.0603460  26.7528590  20.0383320  35.6860350  26.4124470
  21.3550450  35.3048540  27.0549780  15.2929680  48.8080640  23.7044560
  14.7677300  49.1888670  23.0006520  15.2174260  49.4331410  24.4254270
  16.6820150  34.4728240  22.3028250  17.2112910  33.6858040  22.1736200
  17.3148470  35.1519430  22.5363780  18.8757990  34.2103380  25.3573640
  18.2460730  33.5090690  25.5243770  18.3363130  34.9707510  25.1406800
  21.8149940  50.8242610  38.0284250  22.7417250  50.5886880  38.0720210
  21.8000370  51.6514610  37.5470280  30.0495000  50.3668180  25.0258500
  30.2247190  49.6805920  24.3819420  29.3516570  50.8915230  24.6335170
  19.0013550  33.4887360  37.7926130  18.7197820  33.9920960  37.0286950
  19.3833250  32.6909110  37.4268260  17.8922650  50.7563020  22.5793810
  18.6241470  50.4722300  22.0317700  18.1516320  50.5176300  23.4693190
  17.0537440  46.8727750  22.5840140  16.4246320  47.3412850  23.1325970
  17.1685270  46.0276970  23.0186330  28.3827500  50.0512470  37.8525290
  29.1752820  49.5561700  37.6451250  28.6760650  50.7302610  38.4600900
  24.5087160  40.9233410   8.7341340  24.4281210  40.0088020   8.4633050
  24.0951580  41.4200480   8.0281050  22.6405200  42.7012430  10.6150610
  21.8647300  42.2212870  10.9049180  23.2918130  42.0218080  10.4406770
  16.6571030  43.0132240  11.4926370  15.8255910  42.7580950  11.8922880
  17.2652010  43.0843010  12.2284290  26.6612630  47.1072620   9.3949740
  26.1994160  46.3359860   9.7236910  27.4738180  47.1338690   9.9002190
  16.6372290  47.0472330  11.6884390  16.9400330  46.1570070  11.5094610
  17.3815880  47.6042550  11.4606640  15.0662980  37.9734130   5.2768760
  14.1779680  38.3150100   5.1748640  15.3504170  37.7734450   4.3849590
  13.0295990  40.5739780  11.1608460  13.6012100  39.8061980  11.1612100
  13.0297530  40.8728540  10.2515070  22.8875940  49.3930630   9.0153730
  22.2687380  49.8488130   8.4448170  23.7427720  49.5482090   8.6143430
  22.0814190  45.3769620  10.6220770  22.0122470  44.4359560  10.4609900
  22.8434050  45.4671030  11.1943340  14.2720860  35.9824140  12.9477390
  14.0923700  35.0849890  13.2280150  13.8700940  36.5296010  13.6224340
  23.1119360  38.1840000  10.8489700  23.4884180  37.3111880  10.7363370
  23.0138870  38.5198700   9.9580140  17.2424370  36.5565630   6.3107140
  17.3491120  37.4569360   6.6175900  16.3316730  36.5083600   6.0201790
  26.8943480  35.6790440   7.7818040  27.7153100  35.1887010   7.8243520
  26.9277560  36.2688100   8.5349880  14.8907530  38.4784640  11.5559730
  15.5717640  38.7423010  12.1747130  14.5755580  37.6385510  11.8897740
  19.0832100  39.5252000  10.6432320  19.5910320  40.0232970  11.2837340
  19.6145340  38.7487200  10.4671680  31.1843030  37.6957190  14.3461670
  30.4795200  38.0838900  13.8276780  31.4500950  38.3907480  14.9482600
  17.3668200  34.1650560  14.9095740  17.3686640  34.6822950  14.1041640
  16.5372510  33.6880740  14.8865670  23.7539290  44.2769870   6.4085640
  23.1356560  44.7419320   5.8448360  24.2662540  44.9697350   6.8255150
  18.6171050  43.8045740  13.0869240  18.2840430  44.4314660  13.7290310
  18.7937730  44.3307620  12.3070910  27.1304960  37.6190820  10.5545580
  26.4260530  37.9075710  11.1348690  27.4917120  38.4290930  10.1945140
  17.0483530  35.8760520  12.9166190  17.3900340  36.7202570  12.6220060
  16.1099340  36.0244260  13.0331530  17.8290150  45.7726540  14.9018420
  18.4464150  46.4477620  14.6202870  16.9683270  46.1814520  14.8105920
  13.1222490  44.9626400   3.7825270  12.7450470  45.4513500   3.0510170
  13.3795560  45.6351680   4.4131800  28.7467740  47.2365950  12.8173060
  28.0631260  47.9065060  12.8089730  29.2862030  47.4346600  12.0517920
  30.1991880  37.0645610  10.9454790  29.2516790  37.0984590  11.0770220
  30.5241870  37.8784560  11.3304150  20.7311420  33.3642790   9.2410780
  21.0386400  32.8089680   8.5246280  19.8012120  33.4987250   9.0583770
  26.2826480  49.0810080  11.5318240  26.2953640  48.6772370  10.6640500
  25.7301700  49.8557370  11.4279670  27.5771900  45.8026300   6.6208410
  27.4668230  44.8600630   6.7457830  27.5740150  46.1641940   7.5071170
  25.6811920  43.9839920  12.8600850  26.0980710  43.7700030  12.0254310
  26.4051740  44.2412710  13.4309470  23.1192180  41.4291620   5.9770900
  22.1921460  41.3629000   6.2059370  23.2717000  42.3671750   5.8626140
  23.1061260  37.7008620   2.9738060  22.1664930  37.8622580   3.0590520
  23.4244520  38.4194300   2.4274050  29.6274020  42.3827140  12.9517090
  28.7992650  42.4520230  12.4767220  30.2224500  42.9681450  12.4832920
  27.1489470  42.9911920   6.4806150  26.5301890  42.6531470   5.8332450
  27.1313920  42.3471680   7.1885340  26.5916030  39.1696460  13.8971960
  26.1787210  39.9950170  14.1511950  25.8591980  38.5841500  13.7048320
  18.7248820  41.9556360   8.7590630  18.3205820  41.2433610   8.2636530
  18.8111940  41.6109600   9.6478670  19.1930520  45.6423920  10.9229840
  18.8958810  45.0369390  10.2437620  20.1430340  45.6801230  10.8119200
  17.4377440  38.7299570  12.5389670  17.9892030  38.8394910  11.7642920
  17.9520950  39.1037170  13.2544900  27.2816130  49.2155790  14.5852940
  26.8046690  50.0227980  14.3925550  26.5977920  48.5634120  14.7379150
  18.2848950  45.3805610  17.5737640  17.3877480  45.6045580  17.8211040
  18.3101820  45.5040550  16.6249040  25.3254170  42.2298730   3.4878900
  25.7647450  41.3921160   3.3416720  26.0382590  42.8628130   3.5743040
  17.1120170  42.2518930  16.1495010  16.9727940  43.1241730  16.5182410
  16.2301530  41.9091740  16.0042950  23.4349550  47.1694800   7.4560140
  23.8745460  47.9119130   7.0415530  23.3736440  47.4121370   8.3799100
  18.9100520  48.1940630  18.3580160  18.8815950  48.5983580  17.4908590
  18.7465490  47.2650990  18.1951760  28.9071310  33.4841540   1.8019940
  28.5943970  33.5768370   2.7019010  29.6683780  34.0622570   1.7517370
  15.4253450  40.8501340   6.2597280  15.3051050  41.5763430   5.6478550
  15.1154340  40.0804250   5.7825190  13.0638820  44.0216480  12.0665920
  13.1419240  44.1565250  11.1221640  13.6780500  43.3132370  12.2594040
  14.3086450  45.7216670   8.4772100  13.9014530  45.8631260   7.6225700
  15.1999460  45.4376830   8.2743310  30.2648590  46.1680580  16.8144340
  30.3911650  45.9292460  15.8961520  30.3069970  45.3365120  17.2866420
  24.1265330  49.8708580  15.3839150  24.6410000  49.7816590  16.1861580
  23.2834410  50.2168280  15.6767060  26.1019730  50.1563920   4.8123150
  25.9420870  49.8666860   5.7104980  25.9366440  49.3804050   4.2768380
  18.5808110  49.9362450   6.5894770  18.4050590  49.0197990   6.3762570
  17.7263850  50.2949740   6.8292570  25.8045860  47.6651480   3.3721150
  25.1111020  47.6628770   2.7123430  26.5468720  47.2410800   2.9415320
  25.3695790  49.2914190   7.4469640  25.8252740  48.5103570   7.7608260
  25.7088310  50.0021010   7.9910820  30.1172600  38.2213040  17.7794080
  29.5016870  38.7292710  17.2509540  29.7969020  37.3211370  17.7220020
  13.1198340  45.0630650  14.6060380  13.2829380  44.5936010  13.7879750
  13.5850790  44.5554210  15.2709220  17.8917110  34.1936410   9.6420950
  17.4485260  34.9745950   9.3105470  18.4502100  34.5166300  10.3491890
  22.1786920  37.0604930  15.2456270  21.7166290  37.2687950  16.0576210
  21.7765030  36.2464280  14.9426940  27.1791430  38.2813880  16.3752930
  26.3285020  37.9819630  16.6962000  27.0193220  38.5255890  15.4636750
  24.2741140  39.7815630  18.4751720  24.5994550  38.9479380  18.1353950
  25.0621470  40.3044150  18.6230050  21.0075930  33.8147110   4.5226780
  20.3830110  33.8106980   5.2480090  20.9206050  32.9478070   4.1262750
  19.9293010  34.7383740  11.5010550  20.2265340  35.6446570  11.4202570
  20.4778570  34.2502520  10.8870120  17.6831330  39.3169980   7.3702200
  17.4572250  39.1007150   8.2748820  16.9023860  39.7498440   7.0248170
  24.9129090  39.3233350   5.9692850  24.3137980  40.0469150   5.7856470
  25.4608700  39.2610130   5.1869300  23.5193960  37.9596890   7.9996130
  23.9123530  38.2769090   7.1864820  23.8810810  37.0808770   8.1140650
  15.2541080  36.6269230  16.1896250  14.8604470  37.4744440  16.3969030
  14.5659480  35.9895600  16.3804890  21.8286130  36.7104200  19.2592990
  21.1384450  36.5176400  19.8939080  22.5718430  36.9938840  19.7917290
  12.5558130  34.5497690  10.2226330  12.2671180  35.1200550  10.9351310
  13.3003890  34.0702140  10.5857560  24.1049100  40.5502640  12.0946910
  23.3730220  41.0589450  12.4437010  23.7073440  39.7332620  11.7935690
  20.5426490  37.2256840  10.4999400  20.5462550  36.7846790   9.6503940
  21.4377610  37.5474170  10.6071220  16.3928870  37.1083330   9.4593610
  16.0528920  37.5858560  10.2160660  15.6306190  36.6548450   9.0994710
  20.6046640  38.2268920   3.4906160  20.7259460  38.1855400   4.4391980
  20.2195150  39.0893070   3.3352890  24.5675010  36.0036320  11.5069850
  24.5847750  36.4544970  12.3511700  24.3190590  35.1041960  11.7203290
  19.6168140  40.5370060   2.8889460  19.0485040  40.0888310   2.2625370
  20.3257140  40.8962840   2.3554610  27.9945760  33.4168500  17.3456230
  28.3191530  32.6858160  17.8714210  28.0302270  33.0982140  16.4437220
  14.6937320  44.4382080  16.7656190  14.3092110  43.7975750  17.3639150
  15.0049510  45.1418200  17.3350920  20.8434460  41.2858620  12.2464810
  21.2104590  40.8117190  12.9926150  20.6539520  42.1600190  12.5873150
  13.7074950  36.0302310   8.3758280  13.4221870  35.6657980   9.2136900
  13.6453810  35.2982770   7.7621420  18.6333830  40.3267260  14.5649020
  18.3290900  41.2059240  14.7899380  19.5880290  40.3867050  14.6006460
  17.1615620  44.5328250   5.1615870  16.3877880  43.9925870   5.0014590
  17.8910250  44.0134860   4.8233630  27.9203600  43.5293610  10.9542260
  28.6402720  44.0248900  10.5638370  27.7185420  42.8511500  10.3096130
  23.3813540  34.9231570   5.0971650  22.5678150  34.4244740   5.0216960
  23.1875490  35.7629820   4.6808000  23.3022400  43.6002670  16.8411260
  23.2359710  42.6798340  16.5868850  22.6727540  43.6978110  17.5555900
  26.0961930  39.2951220   3.3933810  26.9841550  39.6068450   3.2185150
  26.0667020  38.4223470   3.0014390  17.2053020  44.2008630   8.7994680
  17.7231690  43.3976890   8.7451570  16.7537040  44.1387770   9.6411510
  22.0922520  45.4674910   4.0721980  22.4338220  46.2117140   3.5765300
  21.2635230  45.7806030   4.4346810  14.6897560  41.1670000  15.7120380
  14.3312500  41.8323850  16.2993720  14.3952120  40.3353550  16.0833000
  17.8910680  41.6254240  18.5959930  17.5910820  41.7711420  17.6987750
  18.6621920  41.0659530  18.5033320  23.2339130  46.4223240  16.5915060
  23.2483670  45.4904200  16.3733970  22.5264230  46.5083000  17.2304830
  28.3676200  40.6063060   2.8613670  28.2839920  41.0377280   2.0110110
  29.0870390  41.0661410   3.2940490  29.4450340  43.0630580  15.9383640
  28.7198530  43.6559360  15.7413030  29.9725800  43.0554120  15.1397010
  29.3963450  47.4605320   5.5895800  28.7539610  46.8060940   5.8639520
  29.0094110  47.8660410   4.8136470  24.9749930  44.7890750   9.4367490
  25.3273750  44.1918880   8.7768860  24.0912260  44.4634980   9.6075740
  21.0613210  45.5488440   6.8437900  21.7484340  46.0957650   7.2245490
  20.2745630  46.0929170   6.8787510  13.2005610  41.1661260   2.3354980
  14.0700460  41.4486060   2.6190900  12.7095930  41.9797130   2.2203790
  20.3640420  42.5534470   6.4563260  20.8203200  43.3639720   6.6823450
  20.0128630  42.2357610   7.2881750  22.6673030  48.0640810  13.6855560
  23.3115250  48.2700190  14.3628980  23.0302470  47.3029210  13.2326410
  16.2652200  32.8972120   6.9285780  16.1366830  32.8890020   7.8770700
  15.4414220  33.2355210   6.5776790  23.9405110  46.0673160  12.4033010
  24.5827340  45.3666320  12.5165180  24.4654460  46.8471600  12.2229900
  25.7142730  46.8668060  15.6069070  26.0498970  47.4534750  16.2846990
  24.7943070  46.7360770  15.8366860  13.5676860  50.3788640   2.9016610
  13.9274500  50.9777980   2.2473880  13.4269200  50.9248530   3.6751640
  13.2646130  34.6563240  16.3892480  12.5504650  34.8560160  16.9945090
  13.6841170  33.8802810  16.7607280  27.3677080  44.2693720   3.7886310
  27.0798780  44.7306410   4.5764190  28.1629250  43.8091490   4.0570530
  13.5518720  48.6443500  17.3759010  13.6609840  47.7038240  17.2354400
  12.8999280  48.9098250  16.7272740  21.5431310  46.9159390  18.7757130
  21.2228180  46.1968630  19.3202820  20.8689670  47.5914460  18.8493190
  19.5845480  47.7619840   3.7190280  19.5755580  48.4949530   3.1034790
  18.6643840  47.5151420   3.8117240  15.1852120  42.9834730   4.4637040
  14.5780070  43.7233630   4.4732340  15.6601470  43.0734090   3.6375240
  24.7584910  37.1485550  14.1393930  25.1265730  36.3280760  14.4673500
  23.8983110  37.2087440  14.5549580  28.1246940  36.1042490   4.9481490
  27.4960100  36.2088160   4.2339720  27.6298860  36.3239270   5.7375370
  22.5705080  47.8248080   2.3815470  22.6717060  47.6212070   1.4517450
  21.6706820  47.5706360   2.5863250  20.0930970  38.3828440   6.3639370
  19.3847120  38.8514780   6.8052980  20.3775450  37.7250450   6.9984560
  21.7186900  39.8025140  14.3631900  22.2172150  40.2770960  15.0283750
  21.8609850  38.8788660  14.5701930  24.1246400  35.1079100   7.8035160
  24.0014180  35.1265230   6.8544670  25.0730960  35.1558040   7.9233560
  21.2123190  50.3434400   7.0763140  21.4664690  50.3055790   6.1542510
  20.2635670  50.2167730   7.0691390  18.2965990  36.6913520   3.7390080
  19.1456520  37.1283670   3.6730270  17.9297260  37.0033780   4.5662140
  28.9253760  36.0193100  15.2060290  28.4227360  36.7598500  15.5454100
  29.7410420  36.4077100  14.8897080  27.2175770  41.2626280   8.6521650
  26.2765910  41.2776510   8.8269340  27.5319840  40.4762240   9.0981950
  17.1957410  42.9445880   2.2125610  17.9620680  42.8327240   2.7751040
  17.2732100  42.2483850   1.5602380  15.8904170  40.3770950   2.8958500
  15.9707760  39.4298460   3.0075900  16.7823920  40.7077830   3.0019160
  29.2201350  48.4335130  10.3275910  29.3448770  49.2566300  10.7999720
  30.0866910  48.2225860   9.9800060  16.6918880  50.5266340   9.9993040
  17.4281360  49.9781800  10.2701610  17.0759800  51.3922350   9.8599030
  13.5764360  46.5939910   5.8734550  12.6504140  46.8361050   5.8639960
  14.0420790  47.4214170   5.7519300  15.6977160  49.7112410  19.1878620
  16.4989890  50.0324460  19.6014020  15.1828980  49.3507990  19.9098530
  24.5341790  45.8192280  19.1354030  23.9279950  45.8423880  18.3949780
  24.2295900  45.0875320  19.6721280  25.9642160  49.5472570  17.7463440
  26.9163910  49.4630590  17.6963680  25.8170380  50.2114280  18.4197230
  28.8551360  48.9266780   3.2455350  28.5692870  48.5131920   2.4309530
  28.6570910  49.8554490   3.1255870  13.4174970  42.1985870  18.1314670
  13.9213990  41.6193150  18.7030900  12.6782390  42.4826100  18.6691040
  20.4712910  43.6056860  17.6650190  19.7058580  44.1741860  17.5804860
  20.6528870  43.3133070  16.7718420  23.5601320  43.9820090   2.2902950
  23.0111420  44.4289390   2.9345690  24.1820580  43.4769340   2.8140620
  27.6136260  45.3362190  18.2225210  28.3545730  45.6737950  17.7192670
  26.8508940  45.5054250  17.6694980  15.4498050  40.3415460  19.0264740
  15.4903390  40.0429330  19.9349970  16.3043550  40.7423070  18.8672260
  19.2276440  42.9411010   4.1868250  19.6492860  42.7750880   5.0299640
  19.3527280  42.1311240   3.6923390  17.3903860  38.9207560  16.9939230
  16.8600320  38.4298510  16.3662570  18.0591930  39.3491760  16.4597160
  26.2881920  43.3877020  16.7580420  26.7022940  43.5422100  17.6070840
  25.3532920  43.5132240  16.9206200  26.7604090  40.7273180  18.7619570
  27.3424860  39.9725500  18.6740050  26.9365860  41.2580620  17.9851050
  17.8776160  35.8869930  17.0736520  17.7833030  35.2690680  16.3487390
  17.2973550  36.6136220  16.8466430  20.6437600  34.4443170  14.1063910
  20.1954900  34.4667430  13.2609460  20.0102800  34.0462190  14.7034210
  21.0497150  43.3397500  14.7276350  21.4685260  44.1830230  14.5552590
  20.1305780  43.4769540  14.4983130  23.3861050  41.0713680  16.1114190
  23.5057260  40.4754820  16.8509030  24.2455050  41.1083370  15.6915490
  25.7248950  41.6250870  14.6876700  25.1984170  42.1493490  14.0841840
  26.0680290  42.2578260  15.3186430  18.9004570  49.6450510  15.8434080
  18.3625660  50.3696570  15.5242780  19.1538530  49.1680850  15.0531420
  20.1529820  37.6135030  17.3690010  20.7429510  37.3050880  18.0567830
  19.3350060  37.1414780  17.5249910  24.9723250  37.2300840  17.6023030
  24.2838770  36.5682380  17.5373020  25.6929270  36.7839110  18.0471490
  25.6023650  33.8252470   3.6613290  25.8825940  32.9820370   4.0172710
  24.8289380  34.0575580   4.1752040  21.7566780  50.8801720  16.1020730
  21.6825480  51.7836860  16.4093100  20.8545620  50.5613620  16.0742800
  20.1403070  35.0579480   2.1060490  19.7925070  34.3803470   1.5262940
  20.3415840  34.5968990   2.9203880  22.3052110  50.0460230   3.7247090
  23.2002900  50.3845200   3.7465850  22.3369740  49.3239640   3.0971370
  15.9448270  45.4187280   1.9534090  16.3823140  45.9616950   2.6091670
  16.4296000  44.5934230   1.9630430  13.1594070  48.2076310   9.4054350
  13.4897080  47.3397370   9.1732990  13.5885070  48.4134830  10.2359310
  17.7555990  46.5385320   7.0656320  17.4551530  46.4150290   7.9660230
  17.6493480  45.6793910   6.6572050  13.6484280  49.0746900  12.1435980
  13.2115270  49.2547700  12.9760130  14.2161960  49.8321520  12.0017700
  29.2846460  48.5763900  16.4313290  28.6848450  48.6356460  15.6877210
  29.4140360  47.6368880  16.5610140  30.5247910  46.3181720   1.7683000
  29.6940870  46.3858370   2.2390230  30.7019740  47.2085840   1.4649860
  29.9804370  43.0629200   4.2717200  30.7423280  43.6325850   4.3776890
  29.9958740  42.4956400   5.0425510  13.4808710  41.5867130   8.5024860
  12.8257550  41.3178770   7.8584560  14.3186660  41.4771610   8.0526840
  30.9864340  43.9179300   9.1159130  31.3573170  43.1346620   8.7095100
  31.6266270  44.6068400   8.9376430  27.9698100  45.3015880  14.5289450
  27.1557940  45.7313040  14.7915240  28.3772300  45.9134290  13.9158500
  26.4299150  36.3808420   2.7243350  26.8484030  36.1939400   1.8840010
  26.1235210  35.5287470   3.0346280  29.9288880  41.2932560   6.4219150
  29.5532480  40.5260490   5.9900440  29.1992000  41.6755260   6.9094080
  14.5184640  41.9719700  13.0428200  14.8857680  41.8847100  13.9224220
  13.9495460  41.2086250  12.9435060  29.3188500  40.4404080  16.0558670
  29.0874590  40.2116830  15.1556620  29.5793050  41.3603630  16.0103560
  14.0700640  38.8828790  16.9486620  13.1756690  38.8495550  17.2880330
  14.6098190  39.0815580  17.7137870  27.7576570  35.6660510  18.8338370
  28.6346750  35.6743910  19.2172370  27.7697410  34.9291350  18.2230720
  12.6946790  38.7966060   4.4450190  11.7910870  39.0596260   4.2701850
  13.1787410  39.0677230   3.6650150  29.2039840  39.5190050   9.7226390
  29.7277320  39.0252700   9.0916560  29.7899260  39.6540410  10.4673960
  29.3829560  39.6029920  13.2445940  28.4332270  39.5693460  13.3590930
  29.5642570  40.5130030  13.0095710  15.2374000  37.8531600   2.3544570
  15.9465700  37.4314820   1.8691850  14.5213940  37.9206830   1.7227920
  28.6939810  38.7763400   5.6618800  29.1898930  38.5434270   6.4467680
  28.4955880  37.9375240   5.2456440  14.5740350  33.1577120  11.2969840
  15.2216540  32.6074500  10.8565000  14.9942190  33.4120270  12.1185650
  30.1226970  37.4124350   8.1956480  30.0126250  37.2580390   9.1338750
  30.8834560  36.8845290   7.9531890  28.4692690  33.3518480  14.6539480
  29.1064910  33.9652620  15.0198670  28.6167580  33.3879140  13.7088710
  31.0855730  36.0142930   4.0619330  30.2907230  35.9488050   4.5912240
  31.2899010  36.9493570   4.0504680  28.0274150  50.0534480   8.0557720
  28.6233220  49.7319050   7.3792140  28.2852300  49.5806300   8.8470990
  14.3272350  33.3132790  14.0395160  13.9787170  33.7696610  14.8053340
  13.9960050  32.4189920  14.1217590  15.9336720  46.4852390  18.2048350
  15.8906350  46.1145300  19.0862810  16.0647730  47.4229960  18.3450170
  19.6342750  48.0411980  13.8058070  19.3934110  48.3086540  12.9188590
  20.5745390  48.2117710  13.8608930  21.8397170  34.5044670  17.5614580
  21.7786060  35.0966500  18.3109990  22.7797550  34.3970630  17.4164840
  24.4771730  34.1614730  17.2006870  25.0912140  34.4794020  16.5387950
  25.0221290  33.6763320  17.8202730  30.8946910  50.0606360  14.6068710
  30.4005190  50.4575230  13.8895840  30.2860200  49.4355570  15.0005990
  14.9992990  32.8408990  17.3145930  15.5475980  32.6597040  16.5512040
  15.0648300  32.0503100  17.8502240  15.7724750  49.4314640  15.3246130
  15.1785070  49.2999340  16.0636170  15.7648590  48.5952780  14.8588230
  25.2179770  32.7246870  13.5276160  24.3439610  33.0581980  13.3249090
  25.1090520  32.2520050  14.3528030  26.1251750  34.9317740  14.9117880
  25.7965110  34.1169500  14.5319610  27.0734050  34.8887550  14.7883570
  28.5786360  50.7029780  11.8855450  28.1189330  51.4545590  11.5113470
  27.9498820  49.9836250  11.8270250  15.4036980  46.7973020  14.2754170
  14.6771040  46.1778310  14.2080120  15.4646130  47.1913630  13.4052250
  19.0082080  49.0118020  11.0603580  19.5247100  48.4005380  10.5351840
  19.6579460  49.5146800  11.5514590  21.7477580  49.9026510  11.8872560
  22.0355390  49.6480810  11.0105570  22.2600800  49.3503870  12.4778130
  22.9654590  33.6416710  12.4669070  22.1826380  34.1162210  12.7465830
  22.6717520  32.7371540  12.3582250  27.5175660  34.3439810  10.5118160
  27.9583750  34.2884910   9.6639760  27.2483250  35.2597820  10.5828340
  29.3814230  33.9755050   8.5226980  29.3202630  33.0316270   8.3758000
  30.1606260  34.0835140   9.0680440  13.6866980  50.1147410   7.4850930
  13.5189020  49.4818090   8.1832820  12.8201490  50.3206810   7.1345120
  14.3095000  33.9464190   4.9882790  15.0674360  34.0593070   4.4146820
  13.8472170  34.7833390   4.9426220  20.8508810  36.0603460   7.9785100
  20.0383320  35.6860350   7.6380980  21.3550450  35.3048540   8.2806290
  25.3533790  32.7245910   9.2168170  25.9563160  33.2966120   9.6916690
  24.6126780  33.2885350   8.9942070  28.4968390  33.1267470   4.4908450
  28.6919020  34.0250920   4.7575880  27.7098260  32.8954550   4.9841400
  15.2929680  48.8080640   4.9301070  14.7677300  49.1888670   4.2263030
  15.2174260  49.4331410   5.6510780  16.6820150  34.4728240   3.5284760
  17.2112910  33.6858040   3.3992710  17.3148470  35.1519430   3.7620290
  18.8757990  34.2103380   6.5830150  18.2460730  33.5090690   6.7500280
  18.3363130  34.9707510   6.3663310  21.8149940  50.8242610  19.2540760
  22.7417250  50.5886880  19.2976720  21.8000370  51.6514610  18.7726790
  30.0495000  50.3668180   6.2515010  30.2247190  49.6805920   5.6075930
  29.3516570  50.8915230   5.8591680  19.0013550  33.4887360  19.0182640
  18.7197820  33.9920960  18.2543460  19.3833250  32.6909110  18.6524770
  17.8922650  50.7563020   3.8050320  18.6241470  50.4722300   3.2574210
  18.1516320  50.5176300   4.6949700  17.0537440  46.8727750   3.8096650
  16.4246320  47.3412850   4.3582480  17.1685270  46.0276970   4.2442840
  25.6029010  32.9040940  19.5963110  25.4894460  33.2235550  20.4914630
  26.4198750  33.3053450  19.3000390  28.3827500  50.0512470  19.0781800
  29.1752820  49.5561700  18.8707760  28.6760650  50.7302610  19.6857410
  24.5087160  22.1489920  46.2828320  24.4281210  21.2344530  46.0120030
  24.0951580  22.6456990  45.5768030  22.6405200  23.9268940  48.1637590
  21.8647300  23.4469380  48.4536160  23.2918130  23.2474590  47.9893750
  16.6571030  24.2388750  49.0413350  15.8255910  23.9837460  49.4409860
  17.2652010  24.3099520  49.7771270  26.6612630  28.3329130  46.9436720
  26.1994160  27.5616370  47.2723890  27.4738180  28.3595200  47.4489170
  16.6372290  28.2728840  49.2371370  16.9400330  27.3826580  49.0581590
  17.3815880  28.8299060  49.0093620  15.0662980  19.1990640  42.8255740
  14.1779680  19.5406610  42.7235620  15.3504170  18.9990960  41.9336570
  13.0295990  21.7996290  48.7095440  13.6012100  21.0318490  48.7099080
  13.0297530  22.0985050  47.8002050  22.8875940  30.6187140  46.5640710
  22.2687380  31.0744640  45.9935150  23.7427720  30.7738600  46.1630410
  22.0814190  26.6026130  48.1707750  22.0122470  25.6616070  48.0096880
  22.8434050  26.6927540  48.7430320  14.2720860  17.2080650  50.4964370
  14.0923700  16.3106400  50.7767130  13.8700940  17.7552520  51.1711320
  23.1119360  19.4096510  48.3976680  23.4884180  18.5368390  48.2850350
  23.0138870  19.7455210  47.5067120  17.2424370  17.7822140  43.8594120
  17.3491120  18.6825870  44.1662880  16.3316730  17.7340110  43.5688770
  26.8943480  16.9046950  45.3305020  27.7153100  16.4143520  45.3730500
  26.9277560  17.4944610  46.0836860  14.8907530  19.7041150  49.1046710
  15.5717640  19.9679520  49.7234110  14.5755580  18.8642020  49.4384720
  19.0832100  20.7508510  48.1919300  19.5910320  21.2489480  48.8324320
  19.6145340  19.9743710  48.0158660  31.1843030  18.9213700  51.8948650
  30.4795200  19.3095410  51.3763760  31.4500950  19.6163990  52.4969580
  17.3668200  15.3907070  52.4582720  17.3686640  15.9079460  51.6528620
  16.5372510  14.9137250  52.4352650  23.7539290  25.5026380  43.9572620
  23.1356560  25.9675830  43.3935340  24.2662540  26.1953860  44.3742130
  18.6171050  25.0302250  50.6356220  18.2840430  25.6571170  51.2777290
  18.7937730  25.5564130  49.8557890  27.1304960  18.8447330  48.1032560
  26.4260530  19.1332220  48.6835670  27.4917120  19.6547440  47.7432120
  17.0483530  17.1017030  50.4653170  17.3900340  17.9459080  50.1707040
  16.1099340  17.2500770  50.5818510  17.8290150  26.9983050  52.4505400
  18.4464150  27.6734130  52.1689850  16.9683270  27.4071030  52.3592900
  13.1222490  26.1882910  41.3312250  12.7450470  26.6770010  40.5997150
  13.3795560  26.8608190  41.9618780  28.7467740  28.4622460  50.3660040
  28.0631260  29.1321570  50.3576710  29.2862030  28.6603110  49.6004900
  30.1991880  18.2902120  48.4941770  29.2516790  18.3241100  48.6257200
  30.5241870  19.1041070  48.8791130  20.7311420  14.5899300  46.7897760
  21.0386400  14.0346190  46.0733260  19.8012120  14.7243760  46.6070750
  26.2826480  30.3066590  49.0805220  26.2953640  29.9028880  48.2127480
  25.7301700  31.0813880  48.9766650  27.5771900  27.0282810  44.1695390
  27.4668230  26.0857140  44.2944810  27.5740150  27.3898450  45.0558150
  25.6811920  25.2096430  50.4087830  26.0980710  24.9956540  49.5741290
  26.4051740  25.4669220  50.9796450  23.1192180  22.6548130  43.5257880
  22.1921460  22.5885510  43.7546350  23.2717000  23.5928260  43.4113120
  23.1061260  18.9265130  40.5225040  22.1664930  19.0879090  40.6077500
  23.4244520  19.6450810  39.9761030  29.6274020  23.6083650  50.5004070
  28.7992650  23.6776740  50.0254200  30.2224500  24.1937960  50.0319900
  27.1489470  24.2168430  44.0293130  26.5301890  23.8787980  43.3819430
  27.1313920  23.5728190  44.7372320  26.5916030  20.3952970  51.4458940
  26.1787210  21.2206680  51.6998930  25.8591980  19.8098010  51.2535300
  18.7248820  23.1812870  46.3077610  18.3205820  22.4690120  45.8123510
  18.8111940  22.8366110  47.1965650  19.1930520  26.8680430  48.4716820
  18.8958810  26.2625900  47.7924600  20.1430340  26.9057740  48.3606180
  17.4377440  19.9556080  50.0876650  17.9892030  20.0651420  49.3129900
  17.9520950  20.3293680  50.8031880  27.2816130  30.4412300  52.1339920
  26.8046690  31.2484490  51.9412530  26.5977920  29.7890630  52.2866130
  18.2848950  26.6062120  55.1224620  17.3877480  26.8302090  55.3698020
  18.3101820  26.7297060  54.1736020  17.1120170  23.4775440  53.6981990
  16.9727940  24.3498240  54.0669390  16.2301530  23.1348250  53.5529930
  23.4349550  28.3951310  45.0047120  23.8745460  29.1375640  44.5902510
  23.3736440  28.6377880  45.9286080  18.9100520  29.4197140  55.9067140
  18.8815950  29.8240090  55.0395570  18.7465490  28.4907500  55.7438740
  28.9071310  14.7098050  39.3506920  28.5943970  14.8024880  40.2505990
  29.6683780  15.2879080  39.3004350  15.4253450  22.0757850  43.8084260
  15.3051050  22.8019940  43.1965530  15.1154340  21.3060760  43.3312170
  13.0638820  25.2472990  49.6152900  13.1419240  25.3821760  48.6708620
  13.6780500  24.5388880  49.8081020  14.3086450  26.9473180  46.0259080
  13.9014530  27.0887770  45.1712680  15.1999460  26.6633340  45.8230290
  30.2648590  27.3937090  54.3631320  30.3911650  27.1548970  53.4448500
  30.3069970  26.5621630  54.8353400  24.1265330  31.0965090  52.9326130
  24.6410000  31.0073100  53.7348560  23.2834410  31.4424790  53.2254040
  26.1019730  31.3820430  42.3610130  25.9420870  31.0923370  43.2591960
  25.9366440  30.6060560  41.8255360  18.5808110  31.1618960  44.1381750
  18.4050590  30.2454500  43.9249550  17.7263850  31.5206250  44.3779550
  25.8045860  28.8907990  40.9208130  25.1111020  28.8885280  40.2610410
  26.5468720  28.4667310  40.4902300  25.3695790  30.5170700  44.9956620
  25.8252740  29.7360080  45.3095240  25.7088310  31.2277520  45.5397800
  30.1172600  19.4469550  55.3281060  29.5016870  19.9549220  54.7996520
  29.7969020  18.5467880  55.2707000  13.1198340  26.2887160  52.1547360
  13.2829380  25.8192520  51.3366730  13.5850790  25.7810720  52.8196200
  17.8917110  15.4192920  47.1907930  17.4485260  16.2002460  46.8592450
  18.4502100  15.7422810  47.8978870  22.1786920  18.2861440  52.7943250
  21.7166290  18.4944460  53.6063190  21.7765030  17.4720790  52.4913920
  27.1791430  19.5070390  53.9239910  26.3285020  19.2076140  54.2448980
  27.0193220  19.7512400  53.0123730  24.2741140  21.0072140  56.0238700
  24.5994550  20.1735890  55.6840930  25.0621470  21.5300660  56.1717030
  21.0075930  15.0403620  42.0713760  20.3830110  15.0363490  42.7967070
  20.9206050  14.1734580  41.6749730  19.9293010  15.9640250  49.0497530
  20.2265340  16.8703080  48.9689550  20.4778570  15.4759030  48.4357100
  17.6831330  20.5426490  44.9189180  17.4572250  20.3263660  45.8235800
  16.9023860  20.9754950  44.5735150  24.9129090  20.5489860  43.5179830
  24.3137980  21.2725660  43.3343450  25.4608700  20.4866640  42.7356280
  20.1230540  21.4412070  55.5849450  20.0274140  20.5006800  55.4349850
  20.9662520  21.6627140  55.1897520  23.5193960  19.1853400  45.5483110
  23.9123530  19.5025600  44.7351800  23.8810810  18.3065280  45.6627630
  15.2541080  17.8525740  53.7383230  14.8604470  18.7000950  53.9456010
  14.5659480  17.2152110  53.9291870  12.5558130  15.7754200  47.7713310
  12.2671180  16.3457060  48.4838290  13.3003890  15.2958650  48.1344540
  12.7428360  19.7174320  38.9816030  12.6603030  20.6605080  39.1231020
  12.3911420  19.5749230  38.1028380  24.1049100  21.7759150  49.6433890
  23.3730220  22.2845960  49.9923990  23.7073440  20.9589130  49.3422670
  20.5426490  18.4513350  48.0486380  20.5462550  18.0103300  47.1990920
  21.4377610  18.7730680  48.1558200  16.3928870  18.3339840  47.0080590
  16.0528920  18.8115070  47.7647640  15.6306190  17.8804960  46.6481690
  20.6046640  19.4525430  41.0393140  20.7259460  19.4111910  41.9878960
  20.2195150  20.3149580  40.8839870  24.5675010  17.2292830  49.0556830
  24.5847750  17.6801480  49.8998680  24.3190590  16.3298470  49.2690270
  19.6168140  21.7626570  40.4376440  19.0485040  21.3144820  39.8112350
  20.3257140  22.1219350  39.9041590  27.9945760  14.6425010  54.8943210
  28.3191530  13.9114670  55.4201190  28.0302270  14.3238650  53.9924200
  14.6937320  25.6638590  54.3143170  14.3092110  25.0232260  54.9126130
  15.0049510  26.3674710  54.8837900  20.8434460  22.5115130  49.7951790
  21.2104590  22.0373700  50.5413130  20.6539520  23.3856700  50.1360130
  13.7074950  17.2558820  45.9245260  13.4221870  16.8914490  46.7623880
  13.6453810  16.5239280  45.3108400  18.6333830  21.5523770  52.1136000
  18.3290900  22.4315750  52.3386360  19.5880290  21.6123560  52.1493440
  17.1615620  25.7584760  42.7102850  16.3877880  25.2182380  42.5501570
  17.8910250  25.2391370  42.3720610  27.9203600  24.7550120  48.5029240
  28.6402720  25.2505410  48.1125350  27.7185420  24.0768010  47.8583110
  23.3813540  16.1488080  42.6458630  22.5678150  15.6501250  42.5703940
  23.1875490  16.9886330  42.2294980  23.3022400  24.8259180  54.3898240
  23.2359710  23.9054850  54.1355830  22.6727540  24.9234620  55.1042880
  26.0961930  20.5207730  40.9420790  26.9841550  20.8324960  40.7672130
  26.0667020  19.6479980  40.5501370  17.2053020  25.4265140  46.3481660
  17.7231690  24.6233400  46.2938550  16.7537040  25.3644280  47.1898490
  22.0922520  26.6931420  41.6208960  22.4338220  27.4373650  41.1252280
  21.2635230  27.0062540  41.9833790  14.6897560  22.3926510  53.2607360
  14.3312500  23.0580360  53.8480700  14.3952120  21.5610060  53.6319980
  17.8910680  22.8510750  56.1446910  17.5910820  22.9967930  55.2474730
  18.6621920  22.2916040  56.0520300  23.2339130  27.6479750  54.1402040
  23.2483670  26.7160710  53.9220950  22.5264230  27.7339510  54.7791810
  28.3676200  21.8319570  40.4100650  28.2839920  22.2633790  39.5597090
  29.0870390  22.2917920  40.8427470  29.4450340  24.2887090  53.4870620
  28.7198530  24.8815870  53.2900010  29.9725800  24.2810630  52.6883990
  29.3963450  28.6861830  43.1382780  28.7539610  28.0317450  43.4126500
  29.0094110  29.0916920  42.3623450  24.9749930  26.0147260  46.9854470
  25.3273750  25.4175390  46.3255840  24.0912260  25.6891490  47.1562720
  21.0613210  26.7744950  44.3924880  21.7484340  27.3214160  44.7732470
  20.2745630  27.3185680  44.4274490  13.2005610  22.3917770  39.8841960
  14.0700460  22.6742570  40.1677880  12.7095930  23.2053640  39.7690770
  20.3640420  23.7790980  44.0050240  20.8203200  24.5896230  44.2310430
  20.0128630  23.4614120  44.8368730  22.6673030  29.2897320  51.2342540
  23.3115250  29.4956700  51.9115960  23.0302470  28.5285720  50.7813390
  16.2652200  14.1228630  44.4772760  16.1366830  14.1146530  45.4257680
  15.4414220  14.4611720  44.1263770  23.9405110  27.2929670  49.9519990
  24.5827340  26.5922830  50.0652160  24.4654460  28.0728110  49.7716880
  27.7860830  27.5778290  39.6759130  27.5598410  26.8608730  40.2683770
  27.3957030  27.3290730  38.8380880  25.7142730  28.0924570  53.1556050
  26.0498970  28.6791260  53.8333970  24.7943070  27.9617280  53.3853840
  13.5676860  31.6045150  40.4503590  13.9274500  32.2034490  39.7960860
  13.4269200  32.1505040  41.2238620  13.2646130  15.8819750  53.9379460
  12.5504650  16.0816670  54.5432070  13.6841170  15.1059320  54.3094260
  27.3677080  25.4950230  41.3373290  27.0798780  25.9562920  42.1251170
  28.1629250  25.0348000  41.6057510  13.5518720  29.8700010  54.9245990
  13.6609840  28.9294750  54.7841380  12.8999280  30.1354760  54.2759720
  19.5845480  28.9876350  41.2677260  19.5755580  29.7206040  40.6521770
  18.6643840  28.7407930  41.3604220  15.1852120  24.2091240  42.0124020
  14.5780070  24.9490140  42.0219320  15.6601470  24.2990600  41.1862220
  24.7584910  18.3742060  51.6880910  25.1265730  17.5537270  52.0160480
  23.8983110  18.4343950  52.1036560  28.1246940  17.3299000  42.4968470
  27.4960100  17.4344670  41.7826700  27.6298860  17.5495780  43.2862350
  22.5705080  29.0504590  39.9302450  22.6717060  28.8468580  39.0004430
  21.6706820  28.7962870  40.1350230  20.0930970  19.6084950  43.9126350
  19.3847120  20.0771290  44.3539960  20.3775450  18.9506960  44.5471540
  21.7186900  21.0281650  51.9118880  22.2172150  21.5027470  52.5770730
  21.8609850  20.1045170  52.1188910  24.1246400  16.3335610  45.3522140
  24.0014180  16.3521740  44.4031650  25.0730960  16.3814550  45.4720540
  21.2123190  31.5690910  44.6250120  21.4664690  31.5312300  43.7029490
  20.2635670  31.4424240  44.6178370  18.2965990  17.9170030  41.2877060
  19.1456520  18.3540180  41.2217250  17.9297260  18.2290290  42.1149120
  28.9253760  17.2449610  52.7547270  28.4227360  17.9855010  53.0941080
  29.7410420  17.6333610  52.4384060  27.2175770  22.4882790  46.2008630
  26.2765910  22.5033020  46.3756320  27.5319840  21.7018750  46.6468930
  17.1957410  24.1702390  39.7612590  17.9620680  24.0583750  40.3238020
  17.2732100  23.4740360  39.1089360  15.8904170  21.6027460  40.4445480
  15.9707760  20.6554970  40.5562880  16.7823920  21.9334340  40.5506140
  29.2201350  29.6591640  47.8762890  29.3448770  30.4822810  48.3486700
  30.0866910  29.4482370  47.5287040  16.6918880  31.7522850  47.5480020
  17.4281360  31.2038310  47.8188590  17.0759800  32.6178860  47.4086010
  13.5764360  27.8196420  43.4221530  12.6504140  28.0617560  43.4126940
  14.0420790  28.6470680  43.3006280  19.8021190  30.9253160  39.3705590
  20.5949800  31.2141990  38.9187380  19.2825540  30.4945330  38.6918070
  25.9642160  30.7729080  55.2950420  26.9163910  30.6887100  55.2450660
  25.8170380  31.4370790  55.9684210  28.8551360  30.1523290  40.7942330
  28.5692870  29.7388430  39.9796510  28.6570910  31.0811000  40.6742850
  13.4174970  23.4242380  55.6801650  13.9213990  22.8449660  56.2517880
  12.6782390  23.7082610  56.2178020  20.3198590  26.1456570  39.2347940
  20.2149230  25.5308920  39.9609320  20.1522810  25.6222460  38.4510950
  20.4712910  24.8313370  55.2137170  19.7058580  25.3998370  55.1291840
  20.6528870  24.5389580  54.3205400  23.5601320  25.2076600  39.8389930
  23.0111420  25.6545900  40.4832670  24.1820580  24.7025850  40.3627600
  27.6136260  26.5618700  55.7712190  28.3545730  26.8994460  55.2679650
  26.8508940  26.7310760  55.2181960  19.2276440  24.1667520  41.7355230
  19.6492860  24.0007390  42.5786620  19.3527280  23.3567750  41.2410370
  17.3903860  20.1464070  54.5426210  16.8600320  19.6555020  53.9149550
  18.0591930  20.5748270  54.0084140  21.7404080  23.1905130  38.9832330
  22.2609740  22.4754150  38.6173480  22.3872480  23.8291000  39.2832840
  26.2881920  24.6133530  54.3067400  26.7022940  24.7678610  55.1557820
  25.3532920  24.7388750  54.4693180  26.7604090  21.9529690  56.3106550
  27.3424860  21.1982010  56.2227030  26.9365860  22.4837130  55.5338030
  17.8776160  17.1126440  54.6223500  17.7833030  16.4947190  53.8974370
  17.2973550  17.8392730  54.3953410  20.6437600  15.6699680  51.6550890
  20.1954900  15.6923940  50.8096440  20.0102800  15.2718700  52.2521190
  21.0497150  24.5654010  52.2763330  21.4685260  25.4086740  52.1039570
  20.1305780  24.7026050  52.0470110  23.3861050  22.2970190  53.6601170
  23.5057260  21.7011330  54.3996010  24.2455050  22.3339880  53.2402470
  25.7248950  22.8507380  52.2363680  25.1984170  23.3750000  51.6328820
  26.0680290  23.4834770  52.8673410  18.1235340  20.2400750  38.6813390
  17.9224400  19.3768110  39.0426730  17.9527390  20.1534110  37.7434990
  18.9004570  30.8707020  53.3921060  18.3625660  31.5953080  53.0729760
  19.1538530  30.3937360  52.6018400  20.1529820  18.8391540  54.9176990
  20.7429510  18.5307390  55.6054810  19.3350060  18.3671290  55.0736890
  24.9723250  18.4557350  55.1510010  24.2838770  17.7938890  55.0860000
  25.6929270  18.0095620  55.5958470  25.6023650  15.0508980  41.2100270
  25.8825940  14.2076880  41.5659690  24.8289380  15.2832090  41.7239020
  16.9218140  17.3401370  38.6691270  17.2244040  17.3468800  37.7610420
  17.6612730  16.9899230  39.1658930  21.7566780  32.1058230  53.6507710
  21.6825480  33.0093370  53.9580080  20.8545620  31.7870130  53.6229780
  20.1403070  16.2835990  39.6547470  19.7925070  15.6059980  39.0749920
  20.3415840  15.8225500  40.4690860  22.3052110  31.2716740  41.2734070
  23.2002900  31.6101710  41.2952830  22.3369740  30.5496150  40.6458350
  15.9448270  26.6443790  39.5021070  16.3823140  27.1873460  40.1578650
  16.4296000  25.8190740  39.5117410  13.1594070  29.4332820  46.9541330
  13.4897080  28.5653880  46.7219970  13.5885070  29.6391340  47.7846290
  17.7555990  27.7641830  44.6143300  17.4551530  27.6406800  45.5147210
  17.6493480  26.9050420  44.2059030  13.6484280  30.3003410  49.6922960
  13.2115270  30.4804210  50.5247110  14.2161960  31.0578030  49.5504680
  29.2846460  29.8020410  53.9800270  28.6848450  29.8612970  53.2364190
  29.4140360  28.8625390  54.1097120  30.5247910  27.5438230  39.3169980
  29.6940870  27.6114880  39.7877210  30.7019740  28.4342350  39.0136840
  29.9804370  24.2885710  41.8204180  30.7423280  24.8582360  41.9263870
  29.9958740  23.7212910  42.5912490  13.4808710  22.8123640  46.0511840
  12.8257550  22.5435280  45.4071540  14.3186660  22.7028120  45.6013820
  30.9864340  25.1435810  46.6646110  31.3573170  24.3603130  46.2582080
  31.6266270  25.8324910  46.4863410  27.9698100  26.5272390  52.0776430
  27.1557940  26.9569550  52.3402220  28.3772300  27.1390800  51.4645480
  30.0323540  24.5820080  38.9776700  30.3072380  25.4898960  38.8495920
  29.8434280  24.5182610  39.9138690  26.4299150  17.6064930  40.2730330
  26.8484030  17.4195910  39.4326990  26.1235210  16.7543980  40.5833260
  29.9288880  22.5189070  43.9706130  29.5532480  21.7517000  43.5387420
  29.1992000  22.9011770  44.4581060  14.5184640  23.1976210  50.5915180
  14.8857680  23.1103610  51.4711200  13.9495460  22.4342760  50.4922040
  29.3188500  21.6660590  53.6045650  29.0874590  21.4373340  52.7043600
  29.5793050  22.5860140  53.5590540  14.0700640  20.1085300  54.4973600
  13.1756690  20.0752060  54.8367310  14.6098190  20.3072090  55.2624850
  27.7576570  16.8917020  56.3825350  28.6346750  16.9000420  56.7659350
  27.7697410  16.1547860  55.7717700  12.6946790  20.0222570  41.9937170
  11.7910870  20.2852770  41.8188830  13.1787410  20.2933740  41.2137130
  29.2039840  20.7446560  47.2713370  29.7277320  20.2509210  46.6403540
  29.7899260  20.8796920  48.0160940  29.3829560  20.8286430  50.7932920
  28.4332270  20.7949970  50.9077910  29.5642570  21.7386540  50.5582690
  15.2374000  19.0788110  39.9031550  15.9465700  18.6571330  39.4178830
  14.5213940  19.1463340  39.2714900  14.8848160  15.1327440  38.9434200
  15.6076290  15.6736380  39.2615420  15.1572680  14.8590860  38.0675740
  28.6939810  20.0019910  43.2105780  29.1898930  19.7690780  43.9954660
  28.4955880  19.1631750  42.7943420  14.5740350  14.3833630  48.8456820
  15.2216540  13.8331010  48.4051980  14.9942190  14.6376780  49.6672630
  30.1226970  18.6380860  45.7443460  30.0126250  18.4836900  46.6825730
  30.8834560  18.1101800  45.5018870  28.4692690  14.5774990  52.2026460
  29.1064910  15.1909130  52.5685650  28.6167580  14.6135650  51.2575690
  31.0117240  16.4688780  38.9849600  31.9366550  16.3369960  38.7767890
  30.9893030  16.5481600  39.9386050  31.0855730  17.2399440  41.6106310
  30.2907230  17.1744560  42.1399220  31.2899010  18.1750080  41.5991660
  28.0274150  31.2790990  45.6044700  28.6233220  30.9575560  44.9279120
  28.2852300  30.8062810  46.3957970  14.3272350  14.5389300  51.5882140
  13.9787170  14.9953120  52.3540320  13.9960050  13.6446430  51.6704570
  15.9336720  27.7108900  55.7535330  15.8906350  27.3401810  56.6349790
  16.0647730  28.6486470  55.8937150  19.6342750  29.2668490  51.3545050
  19.3934110  29.5343050  50.4675570  20.5745390  29.4374220  51.4095910
  21.8397170  15.7301180  55.1101560  21.7786060  16.3223010  55.8596970
  22.7797550  15.6227140  54.9651820  24.4771730  15.3871240  54.7493850
  25.0912140  15.7050530  54.0874930  25.0221290  14.9019830  55.3689710
  30.8946910  31.2862870  52.1555690  30.4005190  31.6831740  51.4382820
  30.2860200  30.6612080  52.5492970  14.9992990  14.0665500  54.8632910
  15.5475980  13.8853550  54.0999020  15.0648300  13.2759610  55.3989220
  15.7724750  30.6571150  52.8733110  15.1785070  30.5255850  53.6123150
  15.7648590  29.8209290  52.4075210  25.2179770  13.9503380  51.0763140
  24.3439610  14.2838490  50.8736070  25.1090520  13.4776560  51.9015010
  26.1251750  16.1574250  52.4604860  25.7965110  15.3426010  52.0806590
  27.0734050  16.1144060  52.3370550  28.5786360  31.9286290  49.4342430
  28.1189330  32.6802100  49.0600450  27.9498820  31.2092760  49.3757230
  15.4036980  28.0229530  51.8241150  14.6771040  27.4034820  51.7567100
  15.4646130  28.4170140  50.9539230  19.0082080  30.2374530  48.6090560
  19.5247100  29.6261890  48.0838820  19.6579460  30.7403310  49.1001570
  21.7477580  31.1283020  49.4359540  22.0355390  30.8737320  48.5592550
  22.2600800  30.5760380  50.0265110  22.9654590  14.8673220  50.0156050
  22.1826380  15.3418720  50.2952810  22.6717520  13.9628050  49.9069230
  27.5175660  15.5696320  48.0605140  27.9583750  15.5141420  47.2126740
  27.2483250  16.4854330  48.1315320  29.3814230  15.2011560  46.0713960
  29.3202630  14.2572780  45.9244980  30.1606260  15.3091650  46.6167420
  13.6866980  31.3403920  45.0337910  13.5189020  30.7074600  45.7319800
  12.8201490  31.5463320  44.6832100  14.3095000  15.1720700  42.5369770
  15.0674360  15.2849580  41.9633800  13.8472170  16.0089900  42.4913200
  20.8508810  17.2859970  45.5272080  20.0383320  16.9116860  45.1867960
  21.3550450  16.5305050  45.8293270  25.3533790  13.9502420  46.7655150
  25.9563160  14.5222630  47.2403670  24.6126780  14.5141860  46.5429050
  28.4968390  14.3523980  42.0395430  28.6919020  15.2507430  42.3062860
  27.7098260  14.1211060  42.5328380  15.2929680  30.0337150  42.4788050
  14.7677300  30.4145180  41.7750010  15.2174260  30.6587920  43.1997760
  16.6820150  15.6984750  41.0771740  17.2112910  14.9114550  40.9479690
  17.3148470  16.3775940  41.3107270  18.8757990  15.4359890  44.1317130
  18.2460730  14.7347200  44.2987260  18.3363130  16.1964020  43.9150290
  30.0495000  31.5924690  43.8001990  30.2247190  30.9062430  43.1562910
  29.3516570  32.1171740  43.4078660  19.0013550  14.7143870  56.5669620
  18.7197820  15.2177470  55.8030440  19.3833250  13.9165620  56.2011750
  17.8922650  31.9819530  41.3537300  18.6241470  31.6978810  40.8061190
  18.1516320  31.7432810  42.2436680  17.0537440  28.0984260  41.3583630
  16.4246320  28.5669360  41.9069460  17.1685270  27.2533480  41.7929820
  22.6405200  23.9268940  29.3894100  21.8647300  23.4469380  29.6792670
  23.2918130  23.2474590  29.2150260  16.6571030  24.2388750  30.2669860
  15.8255910  23.9837460  30.6666370  17.2652010  24.3099520  31.0027780
  16.6372290  28.2728840  30.4627880  16.9400330  27.3826580  30.2838100
  17.3815880  28.8299060  30.2350130  15.0662980  19.1990640  24.0512250
  14.1779680  19.5406610  23.9492130  15.3504170  18.9990960  23.1593080
  13.0295990  21.7996290  29.9351950  13.6012100  21.0318490  29.9355590
  13.0297530  22.0985050  29.0258560  14.2720860  17.2080650  31.7220880
  14.0923700  16.3106400  32.0023640  13.8700940  17.7552520  32.3967830
  23.1119360  19.4096510  29.6233190  23.4884180  18.5368390  29.5106860
  23.0138870  19.7455210  28.7323630  17.2424370  17.7822140  25.0850630
  17.3491120  18.6825870  25.3919390  16.3316730  17.7340110  24.7945280
  26.8943480  16.9046950  26.5561530  27.7153100  16.4143520  26.5987010
  26.9277560  17.4944610  27.3093370  14.8907530  19.7041150  30.3303220
  15.5717640  19.9679520  30.9490620  14.5755580  18.8642020  30.6641230
  31.1843030  18.9213700  33.1205160  30.4795200  19.3095410  32.6020270
  31.4500950  19.6163990  33.7226090  17.3668200  15.3907070  33.6839230
  17.3686640  15.9079460  32.8785130  16.5372510  14.9137250  33.6609160
  18.6171050  25.0302250  31.8612730  18.2840430  25.6571170  32.5033800
  18.7937730  25.5564130  31.0814400  27.1304960  18.8447330  29.3289070
  26.4260530  19.1332220  29.9092180  27.4917120  19.6547440  28.9688630
  17.0483530  17.1017030  31.6909680  17.3900340  17.9459080  31.3963550
  16.1099340  17.2500770  31.8075020  17.8290150  26.9983050  33.6761910
  18.4464150  27.6734130  33.3946360  16.9683270  27.4071030  33.5849410
  13.1222490  26.1882910  22.5568760  12.7450470  26.6770010  21.8253660
  13.3795560  26.8608190  23.1875290  30.1991880  18.2902120  29.7198280
  29.2516790  18.3241100  29.8513710  30.5241870  19.1041070  30.1047640
  20.7311420  14.5899300  28.0154270  21.0386400  14.0346190  27.2989770
  19.8012120  14.7243760  27.8327260  23.1061260  18.9265130  21.7481550
  22.1664930  19.0879090  21.8334010  23.4244520  19.6450810  21.2017540
  26.5916030  20.3952970  32.6715450  26.1787210  21.2206680  32.9255440
  25.8591980  19.8098010  32.4791810  18.7248820  23.1812870  27.5334120
  18.3205820  22.4690120  27.0380020  18.8111940  22.8366110  28.4222160
  19.1930520  26.8680430  29.6973330  18.8958810  26.2625900  29.0181110
  20.1430340  26.9057740  29.5862690  17.4377440  19.9556080  31.3133160
  17.9892030  20.0651420  30.5386410  17.9520950  20.3293680  32.0288390
  18.2848950  26.6062120  36.3481130  17.3877480  26.8302090  36.5954530
  18.3101820  26.7297060  35.3992530  17.1120170  23.4775440  34.9238500
  16.9727940  24.3498240  35.2925900  16.2301530  23.1348250  34.7786440
  18.9100520  29.4197140  37.1323650  18.8815950  29.8240090  36.2652080
  18.7465490  28.4907500  36.9695250  28.9071310  14.7098050  20.5763430
  28.5943970  14.8024880  21.4762500  29.6683780  15.2879080  20.5260860
  15.4253450  22.0757850  25.0340770  15.3051050  22.8019940  24.4222040
  15.1154340  21.3060760  24.5568680  30.8615340  30.2024240  38.4287820
  31.3375060  30.6807130  39.1076900  31.4822500  30.1341730  37.7033320
  13.0638820  25.2472990  30.8409410  13.1419240  25.3821760  29.8965130
  13.6780500  24.5388880  31.0337530  14.3086450  26.9473180  27.2515590
  13.9014530  27.0887770  26.3969190  15.1999460  26.6633340  27.0486800
  30.2648590  27.3937090  35.5887830  30.3911650  27.1548970  34.6705010
  30.3069970  26.5621630  36.0609910  18.5808110  31.1618960  25.3638260
  18.4050590  30.2454500  25.1506060  17.7263850  31.5206250  25.6036060
  30.1172600  19.4469550  36.5537570  29.5016870  19.9549220  36.0253030
  29.7969020  18.5467880  36.4963510  13.1198340  26.2887160  33.3803870
  13.2829380  25.8192520  32.5623240  13.5850790  25.7810720  34.0452710
  17.8917110  15.4192920  28.4164440  17.4485260  16.2002460  28.0848960
  18.4502100  15.7422810  29.1235380  22.1786920  18.2861440  34.0199760
  21.7166290  18.4944460  34.8319700  21.7765030  17.4720790  33.7170430
  27.1791430  19.5070390  35.1496420  26.3285020  19.2076140  35.4705490
  27.0193220  19.7512400  34.2380240  24.2741140  21.0072140  37.2495210
  24.5994550  20.1735890  36.9097440  25.0621470  21.5300660  37.3973540
  21.0075930  15.0403620  23.2970270  20.3830110  15.0363490  24.0223580
  20.9206050  14.1734580  22.9006240  19.9293010  15.9640250  30.2754040
  20.2265340  16.8703080  30.1946060  20.4778570  15.4759030  29.6613610
  17.6831330  20.5426490  26.1445690  17.4572250  20.3263660  27.0492310
  16.9023860  20.9754950  25.7991660  24.9129090  20.5489860  24.7436340
  24.3137980  21.2725660  24.5599960  25.4608700  20.4866640  23.9612790
  20.1230540  21.4412070  36.8105960  20.0274140  20.5006800  36.6606360
  20.9662520  21.6627140  36.4154030  23.5193960  19.1853400  26.7739620
  23.9123530  19.5025600  25.9608310  23.8810810  18.3065280  26.8884140
  15.2541080  17.8525740  34.9639740  14.8604470  18.7000950  35.1712520
  14.5659480  17.2152110  35.1548380  21.8286130  17.9360710  38.0336480
  21.1384450  17.7432910  38.6682570  22.5718430  18.2195350  38.5660780
  12.5558130  15.7754200  28.9969820  12.2671180  16.3457060  29.7094800
  13.3003890  15.2958650  29.3601050  12.7428360  19.7174320  20.2072540
  12.6603030  20.6605080  20.3487530  12.3911420  19.5749230  19.3284890
  24.1049100  21.7759150  30.8690400  23.3730220  22.2845960  31.2180500
  23.7073440  20.9589130  30.5679180  20.5426490  18.4513350  29.2742890
  20.5462550  18.0103300  28.4247430  21.4377610  18.7730680  29.3814710
  16.3928870  18.3339840  28.2337100  16.0528920  18.8115070  28.9904150
  15.6306190  17.8804960  27.8738200  20.6046640  19.4525430  22.2649650
  20.7259460  19.4111910  23.2135470  20.2195150  20.3149580  22.1096380
  24.5675010  17.2292830  30.2813340  24.5847750  17.6801480  31.1255190
  24.3190590  16.3298470  30.4946780  19.6168140  21.7626570  21.6632950
  19.0485040  21.3144820  21.0368860  20.3257140  22.1219350  21.1298100
  27.9945760  14.6425010  36.1199720  28.3191530  13.9114670  36.6457700
  28.0302270  14.3238650  35.2180710  14.6937320  25.6638590  35.5399680
  14.3092110  25.0232260  36.1382640  15.0049510  26.3674710  36.1094410
  20.8434460  22.5115130  31.0208300  21.2104590  22.0373700  31.7669640
  20.6539520  23.3856700  31.3616640  13.7074950  17.2558820  27.1501770
  13.4221870  16.8914490  27.9880390  13.6453810  16.5239280  26.5364910
  18.6333830  21.5523770  33.3392510  18.3290900  22.4315750  33.5642870
  19.5880290  21.6123560  33.3749950  17.1615620  25.7584760  23.9359360
  16.3877880  25.2182380  23.7758080  17.8910250  25.2391370  23.5977120
  23.3813540  16.1488080  23.8715140  22.5678150  15.6501250  23.7960450
  23.1875490  16.9886330  23.4551490  23.3022400  24.8259180  35.6154750
  23.2359710  23.9054850  35.3612340  22.6727540  24.9234620  36.3299390
  26.0961930  20.5207730  22.1677300  26.9841550  20.8324960  21.9928640
  26.0667020  19.6479980  21.7757880  17.2053020  25.4265140  27.5738170
  17.7231690  24.6233400  27.5195060  16.7537040  25.3644280  28.4155000
  14.6897560  22.3926510  34.4863870  14.3312500  23.0580360  35.0737210
  14.3952120  21.5610060  34.8576490  23.2339130  27.6479750  35.3658550
  23.2483670  26.7160710  35.1477460  22.5264230  27.7339510  36.0048320
  28.3676200  21.8319570  21.6357160  28.2839920  22.2633790  20.7853600
  29.0870390  22.2917920  22.0683980  29.4450340  24.2887090  34.7127130
  28.7198530  24.8815870  34.5156520  29.9725800  24.2810630  33.9140500
  13.2005610  22.3917770  21.1098470  14.0700460  22.6742570  21.3934390
  12.7095930  23.2053640  20.9947280  20.3640420  23.7790980  25.2306750
  20.8203200  24.5896230  25.4566940  20.0128630  23.4614120  26.0625240
  16.2652200  14.1228630  25.7029270  16.1366830  14.1146530  26.6514190
  15.4414220  14.4611720  25.3520280  13.5676860  31.6045150  21.6760100
  13.9274500  32.2034490  21.0217370  13.4269200  32.1505040  22.4495130
  13.2646130  15.8819750  35.1635970  12.5504650  16.0816670  35.7688580
  13.6841170  15.1059320  35.5350770  21.5431310  28.1415900  37.5500620
  21.2228180  27.4225140  38.0946310  20.8689670  28.8170970  37.6236680
  19.5845480  28.9876350  22.4933770  19.5755580  29.7206040  21.8778280
  18.6643840  28.7407930  22.5860730  15.1852120  24.2091240  23.2380530
  14.5780070  24.9490140  23.2475830  15.6601470  24.2990600  22.4118730
  24.7584910  18.3742060  32.9137420  25.1265730  17.5537270  33.2416990
  23.8983110  18.4343950  33.3293070  28.1246940  17.3299000  23.7224980
  27.4960100  17.4344670  23.0083210  27.6298860  17.5495780  24.5118860
  22.5705080  29.0504590  21.1558960  22.6717060  28.8468580  20.2260940
  21.6706820  28.7962870  21.3606740  20.0930970  19.6084950  25.1382860
  19.3847120  20.0771290  25.5796470  20.3775450  18.9506960  25.7728050
  21.7186900  21.0281650  33.1375390  22.2172150  21.5027470  33.8027240
  21.8609850  20.1045170  33.3445420  24.1246400  16.3335610  26.5778650
  24.0014180  16.3521740  25.6288160  25.0730960  16.3814550  26.6977050
  21.2123190  31.5690910  25.8506630  21.4664690  31.5312300  24.9286000
  20.2635670  31.4424240  25.8434880  18.2965990  17.9170030  22.5133570
  19.1456520  18.3540180  22.4473760  17.9297260  18.2290290  23.3405630
  28.9253760  17.2449610  33.9803780  28.4227360  17.9855010  34.3197590
  29.7410420  17.6333610  33.6640570  17.1957410  24.1702390  20.9869100
  17.9620680  24.0583750  21.5494530  17.2732100  23.4740360  20.3345870
  16.6918880  31.7522850  28.7736530  17.4281360  31.2038310  29.0445100
  17.0759800  32.6178860  28.6342520  13.5764360  27.8196420  24.6478040
  12.6504140  28.0617560  24.6383450  14.0420790  28.6470680  24.5262790
  15.6977160  30.9368920  37.9622110  16.4989890  31.2580970  38.3757510
  15.1828980  30.5764500  38.6842020  19.8021190  30.9253160  20.5962100
  20.5949800  31.2141990  20.1443890  19.2825540  30.4945330  19.9174580
  24.5341790  27.0448790  37.9097520  23.9279950  27.0680390  37.1693270
  24.2295900  26.3131830  38.4464770  25.9642160  30.7729080  36.5206930
  26.9163910  30.6887100  36.4707170  25.8170380  31.4370790  37.1940720
  13.4174970  23.4242380  36.9058160  13.9213990  22.8449660  37.4774390
  12.6782390  23.7082610  37.4434530  20.3198590  26.1456570  20.4604450
  20.2149230  25.5308920  21.1865830  20.1522810  25.6222460  19.6767460
  20.4712910  24.8313370  36.4393680  19.7058580  25.3998370  36.3548350
  20.6528870  24.5389580  35.5461910  23.5601320  25.2076600  21.0646440
  23.0111420  25.6545900  21.7089180  24.1820580  24.7025850  21.5884110
  27.6136260  26.5618700  36.9968700  28.3545730  26.8994460  36.4936160
  26.8508940  26.7310760  36.4438470  15.4498050  21.5671970  37.8008230
  15.4903390  21.2685840  38.7093460  16.3043550  21.9679580  37.6415750
  19.2276440  24.1667520  22.9611740  19.6492860  24.0007390  23.8043130
  19.3527280  23.3567750  22.4666880  17.3903860  20.1464070  35.7682720
  16.8600320  19.6555020  35.1406060  18.0591930  20.5748270  35.2340650
  21.7404080  23.1905130  20.2088840  22.2609740  22.4754150  19.8429990
  22.3872480  23.8291000  20.5089350  26.2881920  24.6133530  35.5323910
  26.7022940  24.7678610  36.3814330  25.3532920  24.7388750  35.6949690
  26.7604090  21.9529690  37.5363060  27.3424860  21.1982010  37.4483540
  26.9365860  22.4837130  36.7594540  17.8776160  17.1126440  35.8480010
  17.7833030  16.4947190  35.1230880  17.2973550  17.8392730  35.6209920
  20.6437600  15.6699680  32.8807400  20.1954900  15.6923940  32.0352950
  20.0102800  15.2718700  33.4777700  21.0497150  24.5654010  33.5019840
  21.4685260  25.4086740  33.3296080  20.1305780  24.7026050  33.2726620
  23.3861050  22.2970190  34.8857680  23.5057260  21.7011330  35.6252520
  24.2455050  22.3339880  34.4658980  25.7248950  22.8507380  33.4620190
  25.1984170  23.3750000  32.8585330  26.0680290  23.4834770  34.0929920
  18.1235340  20.2400750  19.9069900  17.9224400  19.3768110  20.2683240
  17.9527390  20.1534110  18.9691500  18.9004570  30.8707020  34.6177570
  18.3625660  31.5953080  34.2986270  19.1538530  30.3937360  33.8274910
  20.1529820  18.8391540  36.1433500  20.7429510  18.5307390  36.8311320
  19.3350060  18.3671290  36.2993400  24.9723250  18.4557350  36.3766520
  24.2838770  17.7938890  36.3116510  25.6929270  18.0095620  36.8214980
  25.6023650  15.0508980  22.4356780  25.8825940  14.2076880  22.7916200
  24.8289380  15.2832090  22.9495530  16.9218140  17.3401370  19.8947780
  17.2244040  17.3468800  18.9866930  17.6612730  16.9899230  20.3915440
  21.7566780  32.1058230  34.8764220  21.6825480  33.0093370  35.1836590
  20.8545620  31.7870130  34.8486290  20.1403070  16.2835990  20.8803980
  19.7925070  15.6059980  20.3006430  20.3415840  15.8225500  21.6947370
  22.3052110  31.2716740  22.4990580  23.2002900  31.6101710  22.5209340
  22.3369740  30.5496150  21.8714860  15.9448270  26.6443790  20.7277580
  16.3823140  27.1873460  21.3835160  16.4296000  25.8190740  20.7373920
  13.1594070  29.4332820  28.1797840  13.4897080  28.5653880  27.9476480
  13.5885070  29.6391340  29.0102800  17.7555990  27.7641830  25.8399810
  17.4551530  27.6406800  26.7403720  17.6493480  26.9050420  25.4315540
  13.6484280  30.3003410  30.9179470  13.2115270  30.4804210  31.7503620
  14.2161960  31.0578030  30.7761190  29.2846460  29.8020410  35.2056780
  28.6848450  29.8612970  34.4620700  29.4140360  28.8625390  35.3353630
  30.5247910  27.5438230  20.5426490  29.6940870  27.6114880  21.0133720
  30.7019740  28.4342350  20.2393350  13.4808710  22.8123640  27.2768350
  12.8257550  22.5435280  26.6328050  14.3186660  22.7028120  26.8270330
  30.0323540  24.5820080  20.2033210  30.3072380  25.4898960  20.0752430
  29.8434280  24.5182610  21.1395200  26.4299150  17.6064930  21.4986840
  26.8484030  17.4195910  20.6583500  26.1235210  16.7543980  21.8089770
  14.5184640  23.1976210  31.8171690  14.8857680  23.1103610  32.6967710
  13.9495460  22.4342760  31.7178550  29.3188500  21.6660590  34.8302160
  29.0874590  21.4373340  33.9300110  29.5793050  22.5860140  34.7847050
  14.0700640  20.1085300  35.7230110  13.1756690  20.0752060  36.0623820
  14.6098190  20.3072090  36.4881360  27.7576570  16.8917020  37.6081860
  28.6346750  16.9000420  37.9915860  27.7697410  16.1547860  36.9974210
  12.6946790  20.0222570  23.2193680  11.7910870  20.2852770  23.0445340
  13.1787410  20.2933740  22.4393640  29.3829560  20.8286430  32.0189430
  28.4332270  20.7949970  32.1334420  29.5642570  21.7386540  31.7839200
  15.2374000  19.0788110  21.1288060  15.9465700  18.6571330  20.6435340
  14.5213940  19.1463340  20.4971410  14.8848160  15.1327440  20.1690710
  15.6076290  15.6736380  20.4871930  15.1572680  14.8590860  19.2932250
  28.6939810  20.0019910  24.4362290  29.1898930  19.7690780  25.2211170
  28.4955880  19.1631750  24.0199930  14.5740350  14.3833630  30.0713330
  15.2216540  13.8331010  29.6308490  14.9942190  14.6376780  30.8929140
  30.1226970  18.6380860  26.9699970  30.0126250  18.4836900  27.9082240
  30.8834560  18.1101800  26.7275380  31.0117240  16.4688780  20.2106110
  31.9366550  16.3369960  20.0024400  30.9893030  16.5481600  21.1642560
  31.0855730  17.2399440  22.8362820  30.2907230  17.1744560  23.3655730
  31.2899010  18.1750080  22.8248170  14.3272350  14.5389300  32.8138650
  13.9787170  14.9953120  33.5796830  13.9960050  13.6446430  32.8961080
  15.9336720  27.7108900  36.9791840  15.8906350  27.3401810  37.8606300
  16.0647730  28.6486470  37.1193660  19.6342750  29.2668490  32.5801560
  19.3934110  29.5343050  31.6932080  20.5745390  29.4374220  32.6352420
  21.8397170  15.7301180  36.3358070  21.7786060  16.3223010  37.0853480
  22.7797550  15.6227140  36.1908330  24.4771730  15.3871240  35.9750360
  25.0912140  15.7050530  35.3131440  25.0221290  14.9019830  36.5946220
  14.9992990  14.0665500  36.0889420  15.5475980  13.8853550  35.3255530
  15.0648300  13.2759610  36.6245730  15.7724750  30.6571150  34.0989620
  15.1785070  30.5255850  34.8379660  15.7648590  29.8209290  33.6331720
  25.2179770  13.9503380  32.3019650  24.3439610  14.2838490  32.0992580
  25.1090520  13.4776560  33.1271520  26.1251750  16.1574250  33.6861370
  25.7965110  15.3426010  33.3063100  27.0734050  16.1144060  33.5627060
  15.4036980  28.0229530  33.0497660  14.6771040  27.4034820  32.9823610
  15.4646130  28.4170140  32.1795740  19.0082080  30.2374530  29.8347070
  19.5247100  29.6261890  29.3095330  19.6579460  30.7403310  30.3258080
  21.7477580  31.1283020  30.6616050  22.0355390  30.8737320  29.7849060
  22.2600800  30.5760380  31.2521620  22.9654590  14.8673220  31.2412560
  22.1826380  15.3418720  31.5209320  22.6717520  13.9628050  31.1325740
  27.5175660  15.5696320  29.2861650  27.9583750  15.5141420  28.4383250
  27.2483250  16.4854330  29.3571830  29.3814230  15.2011560  27.2970470
  29.3202630  14.2572780  27.1501490  30.1606260  15.3091650  27.8423930
  13.6866980  31.3403920  26.2594420  13.5189020  30.7074600  26.9576310
  12.8201490  31.5463320  25.9088610  14.3095000  15.1720700  23.7626280
  15.0674360  15.2849580  23.1890310  13.8472170  16.0089900  23.7169710
  20.8508810  17.2859970  26.7528590  20.0383320  16.9116860  26.4124470
  21.3550450  16.5305050  27.0549780  25.3533790  13.9502420  27.9911660
  25.9563160  14.5222630  28.4660180  24.6126780  14.5141860  27.7685560
  28.4968390  14.3523980  23.2651940  28.6919020  15.2507430  23.5319370
  27.7098260  14.1211060  23.7584890  15.2929680  30.0337150  23.7044560
  14.7677300  30.4145180  23.0006520  15.2174260  30.6587920  24.4254270
  16.6820150  15.6984750  22.3028250  17.2112910  14.9114550  22.1736200
  17.3148470  16.3775940  22.5363780  18.8757990  15.4359890  25.3573640
  18.2460730  14.7347200  25.5243770  18.3363130  16.1964020  25.1406800
  21.8149940  32.0499120  38.0284250  22.7417250  31.8143390  38.0720210
  21.8000370  32.8771120  37.5470280  19.0013550  14.7143870  37.7926130
  18.7197820  15.2177470  37.0286950  19.3833250  13.9165620  37.4268260
  17.8922650  31.9819530  22.5793810  18.6241470  31.6978810  22.0317700
  18.1516320  31.7432810  23.4693190  17.0537440  28.0984260  22.5840140
  16.4246320  28.5669360  23.1325970  17.1685270  27.2533480  23.0186330
  25.6029010  14.1297450  38.3706600  25.4894460  14.4492060  39.2658120
  26.4198750  14.5309960  38.0743880  28.3827500  31.2768980  37.8525290
  29.1752820  30.7818210  37.6451250  28.6760650  31.9559120  38.4600900
  24.5087160  22.1489920   8.7341340  24.4281210  21.2344530   8.4633050
  24.0951580  22.6456990   8.0281050  22.6405200  23.9268940  10.6150610
  21.8647300  23.4469380  10.9049180  23.2918130  23.2474590  10.4406770
  16.6571030  24.2388750  11.4926370  15.8255910  23.9837460  11.8922880
  17.2652010  24.3099520  12.2284290  26.6612630  28.3329130   9.3949740
  26.1994160  27.5616370   9.7236910  27.4738180  28.3595200   9.9002190
  16.6372290  28.2728840  11.6884390  16.9400330  27.3826580  11.5094610
  17.3815880  28.8299060  11.4606640  15.0662980  19.1990640   5.2768760
  14.1779680  19.5406610   5.1748640  15.3504170  18.9990960   4.3849590
  13.0295990  21.7996290  11.1608460  13.6012100  21.0318490  11.1612100
  13.0297530  22.0985050  10.2515070  22.8875940  30.6187140   9.0153730
  22.2687380  31.0744640   8.4448170  23.7427720  30.7738600   8.6143430
  22.0814190  26.6026130  10.6220770  22.0122470  25.6616070  10.4609900
  22.8434050  26.6927540  11.1943340  14.2720860  17.2080650  12.9477390
  14.0923700  16.3106400  13.2280150  13.8700940  17.7552520  13.6224340
  23.1119360  19.4096510  10.8489700  23.4884180  18.5368390  10.7363370
  23.0138870  19.7455210   9.9580140  17.2424370  17.7822140   6.3107140
  17.3491120  18.6825870   6.6175900  16.3316730  17.7340110   6.0201790
  26.8943480  16.9046950   7.7818040  27.7153100  16.4143520   7.8243520
  26.9277560  17.4944610   8.5349880  14.8907530  19.7041150  11.5559730
  15.5717640  19.9679520  12.1747130  14.5755580  18.8642020  11.8897740
  19.0832100  20.7508510  10.6432320  19.5910320  21.2489480  11.2837340
  19.6145340  19.9743710  10.4671680  31.1843030  18.9213700  14.3461670
  30.4795200  19.3095410  13.8276780  31.4500950  19.6163990  14.9482600
  17.3668200  15.3907070  14.9095740  17.3686640  15.9079460  14.1041640
  16.5372510  14.9137250  14.8865670  23.7539290  25.5026380   6.4085640
  23.1356560  25.9675830   5.8448360  24.2662540  26.1953860   6.8255150
  18.6171050  25.0302250  13.0869240  18.2840430  25.6571170  13.7290310
  18.7937730  25.5564130  12.3070910  27.1304960  18.8447330  10.5545580
  26.4260530  19.1332220  11.1348690  27.4917120  19.6547440  10.1945140
  17.0483530  17.1017030  12.9166190  17.3900340  17.9459080  12.6220060
  16.1099340  17.2500770  13.0331530  17.8290150  26.9983050  14.9018420
  18.4464150  27.6734130  14.6202870  16.9683270  27.4071030  14.8105920
  13.1222490  26.1882910   3.7825270  12.7450470  26.6770010   3.0510170
  13.3795560  26.8608190   4.4131800  28.7467740  28.4622460  12.8173060
  28.0631260  29.1321570  12.8089730  29.2862030  28.6603110  12.0517920
  30.1991880  18.2902120  10.9454790  29.2516790  18.3241100  11.0770220
  30.5241870  19.1041070  11.3304150  20.7311420  14.5899300   9.2410780
  21.0386400  14.0346190   8.5246280  19.8012120  14.7243760   9.0583770
  26.2826480  30.3066590  11.5318240  26.2953640  29.9028880  10.6640500
  25.7301700  31.0813880  11.4279670  27.5771900  27.0282810   6.6208410
  27.4668230  26.0857140   6.7457830  27.5740150  27.3898450   7.5071170
  25.6811920  25.2096430  12.8600850  26.0980710  24.9956540  12.0254310
  26.4051740  25.4669220  13.4309470  23.1192180  22.6548130   5.9770900
  22.1921460  22.5885510   6.2059370  23.2717000  23.5928260   5.8626140
  23.1061260  18.9265130   2.9738060  22.1664930  19.0879090   3.0590520
  23.4244520  19.6450810   2.4274050  29.6274020  23.6083650  12.9517090
  28.7992650  23.6776740  12.4767220  30.2224500  24.1937960  12.4832920
  27.1489470  24.2168430   6.4806150  26.5301890  23.8787980   5.8332450
  27.1313920  23.5728190   7.1885340  26.5916030  20.3952970  13.8971960
  26.1787210  21.2206680  14.1511950  25.8591980  19.8098010  13.7048320
  18.7248820  23.1812870   8.7590630  18.3205820  22.4690120   8.2636530
  18.8111940  22.8366110   9.6478670  19.1930520  26.8680430  10.9229840
  18.8958810  26.2625900  10.2437620  20.1430340  26.9057740  10.8119200
  17.4377440  19.9556080  12.5389670  17.9892030  20.0651420  11.7642920
  17.9520950  20.3293680  13.2544900  27.2816130  30.4412300  14.5852940
  26.8046690  31.2484490  14.3925550  26.5977920  29.7890630  14.7379150
  18.2848950  26.6062120  17.5737640  17.3877480  26.8302090  17.8211040
  18.3101820  26.7297060  16.6249040  25.3254170  23.4555240   3.4878900
  25.7647450  22.6177670   3.3416720  26.0382590  24.0884640   3.5743040
  17.1120170  23.4775440  16.1495010  16.9727940  24.3498240  16.5182410
  16.2301530  23.1348250  16.0042950  23.4349550  28.3951310   7.4560140
  23.8745460  29.1375640   7.0415530  23.3736440  28.6377880   8.3799100
  18.9100520  29.4197140  18.3580160  18.8815950  29.8240090  17.4908590
  18.7465490  28.4907500  18.1951760  28.9071310  14.7098050   1.8019940
  28.5943970  14.8024880   2.7019010  29.6683780  15.2879080   1.7517370
  15.4253450  22.0757850   6.2597280  15.3051050  22.8019940   5.6478550
  15.1154340  21.3060760   5.7825190  30.8615340  30.2024240  19.6544330
  31.3375060  30.6807130  20.3333410  31.4822500  30.1341730  18.9289830
  13.0638820  25.2472990  12.0665920  13.1419240  25.3821760  11.1221640
  13.6780500  24.5388880  12.2594040  14.3086450  26.9473180   8.4772100
  13.9014530  27.0887770   7.6225700  15.1999460  26.6633340   8.2743310
  30.2648590  27.3937090  16.8144340  30.3911650  27.1548970  15.8961520
  30.3069970  26.5621630  17.2866420  24.1265330  31.0965090  15.3839150
  24.6410000  31.0073100  16.1861580  23.2834410  31.4424790  15.6767060
  26.1019730  31.3820430   4.8123150  25.9420870  31.0923370   5.7104980
  25.9366440  30.6060560   4.2768380  18.5808110  31.1618960   6.5894770
  18.4050590  30.2454500   6.3762570  17.7263850  31.5206250   6.8292570
  25.8045860  28.8907990   3.3721150  25.1111020  28.8885280   2.7123430
  26.5468720  28.4667310   2.9415320  25.3695790  30.5170700   7.4469640
  25.8252740  29.7360080   7.7608260  25.7088310  31.2277520   7.9910820
  30.1172600  19.4469550  17.7794080  29.5016870  19.9549220  17.2509540
  29.7969020  18.5467880  17.7220020  13.1198340  26.2887160  14.6060380
  13.2829380  25.8192520  13.7879750  13.5850790  25.7810720  15.2709220
  17.8917110  15.4192920   9.6420950  17.4485260  16.2002460   9.3105470
  18.4502100  15.7422810  10.3491890  22.1786920  18.2861440  15.2456270
  21.7166290  18.4944460  16.0576210  21.7765030  17.4720790  14.9426940
  27.1791430  19.5070390  16.3752930  26.3285020  19.2076140  16.6962000
  27.0193220  19.7512400  15.4636750  24.2741140  21.0072140  18.4751720
  24.5994550  20.1735890  18.1353950  25.0621470  21.5300660  18.6230050
  21.0075930  15.0403620   4.5226780  20.3830110  15.0363490   5.2480090
  20.9206050  14.1734580   4.1262750  19.9293010  15.9640250  11.5010550
  20.2265340  16.8703080  11.4202570  20.4778570  15.4759030  10.8870120
  17.6831330  20.5426490   7.3702200  17.4572250  20.3263660   8.2748820
  16.9023860  20.9754950   7.0248170  24.9129090  20.5489860   5.9692850
  24.3137980  21.2725660   5.7856470  25.4608700  20.4866640   5.1869300
  20.1230540  21.4412070  18.0362470  20.0274140  20.5006800  17.8862870
  20.9662520  21.6627140  17.6410540  23.5193960  19.1853400   7.9996130
  23.9123530  19.5025600   7.1864820  23.8810810  18.3065280   8.1140650
  15.2541080  17.8525740  16.1896250  14.8604470  18.7000950  16.3969030
  14.5659480  17.2152110  16.3804890  21.8286130  17.9360710  19.2592990
  21.1384450  17.7432910  19.8939080  22.5718430  18.2195350  19.7917290
  12.5558130  15.7754200  10.2226330  12.2671180  16.3457060  10.9351310
  13.3003890  15.2958650  10.5857560  24.1049100  21.7759150  12.0946910
  23.3730220  22.2845960  12.4437010  23.7073440  20.9589130  11.7935690
  20.5426490  18.4513350  10.4999400  20.5462550  18.0103300   9.6503940
  21.4377610  18.7730680  10.6071220  16.3928870  18.3339840   9.4593610
  16.0528920  18.8115070  10.2160660  15.6306190  17.8804960   9.0994710
  20.6046640  19.4525430   3.4906160  20.7259460  19.4111910   4.4391980
  20.2195150  20.3149580   3.3352890  24.5675010  17.2292830  11.5069850
  24.5847750  17.6801480  12.3511700  24.3190590  16.3298470  11.7203290
  19.6168140  21.7626570   2.8889460  19.0485040  21.3144820   2.2625370
  20.3257140  22.1219350   2.3554610  27.9945760  14.6425010  17.3456230
  28.3191530  13.9114670  17.8714210  28.0302270  14.3238650  16.4437220
  14.6937320  25.6638590  16.7656190  14.3092110  25.0232260  17.3639150
  15.0049510  26.3674710  17.3350920  20.8434460  22.5115130  12.2464810
  21.2104590  22.0373700  12.9926150  20.6539520  23.3856700  12.5873150
  13.7074950  17.2558820   8.3758280  13.4221870  16.8914490   9.2136900
  13.6453810  16.5239280   7.7621420  18.6333830  21.5523770  14.5649020
  18.3290900  22.4315750  14.7899380  19.5880290  21.6123560  14.6006460
  17.1615620  25.7584760   5.1615870  16.3877880  25.2182380   5.0014590
  17.8910250  25.2391370   4.8233630  27.9203600  24.7550120  10.9542260
  28.6402720  25.2505410  10.5638370  27.7185420  24.0768010  10.3096130
  23.3813540  16.1488080   5.0971650  22.5678150  15.6501250   5.0216960
  23.1875490  16.9886330   4.6808000  23.3022400  24.8259180  16.8411260
  23.2359710  23.9054850  16.5868850  22.6727540  24.9234620  17.5555900
  26.0961930  20.5207730   3.3933810  26.9841550  20.8324960   3.2185150
  26.0667020  19.6479980   3.0014390  17.2053020  25.4265140   8.7994680
  17.7231690  24.6233400   8.7451570  16.7537040  25.3644280   9.6411510
  22.0922520  26.6931420   4.0721980  22.4338220  27.4373650   3.5765300
  21.2635230  27.0062540   4.4346810  14.6897560  22.3926510  15.7120380
  14.3312500  23.0580360  16.2993720  14.3952120  21.5610060  16.0833000
  17.8910680  22.8510750  18.5959930  17.5910820  22.9967930  17.6987750
  18.6621920  22.2916040  18.5033320  23.2339130  27.6479750  16.5915060
  23.2483670  26.7160710  16.3733970  22.5264230  27.7339510  17.2304830
  28.3676200  21.8319570   2.8613670  28.2839920  22.2633790   2.0110110
  29.0870390  22.2917920   3.2940490  29.3963450  28.6861830   5.5895800
  28.7539610  28.0317450   5.8639520  29.0094110  29.0916920   4.8136470
  24.9749930  26.0147260   9.4367490  25.3273750  25.4175390   8.7768860
  24.0912260  25.6891490   9.6075740  21.0613210  26.7744950   6.8437900
  21.7484340  27.3214160   7.2245490  20.2745630  27.3185680   6.8787510
  13.2005610  22.3917770   2.3354980  14.0700460  22.6742570   2.6190900
  12.7095930  23.2053640   2.2203790  20.3640420  23.7790980   6.4563260
  20.8203200  24.5896230   6.6823450  20.0128630  23.4614120   7.2881750
  22.6673030  29.2897320  13.6855560  23.3115250  29.4956700  14.3628980
  23.0302470  28.5285720  13.2326410  16.2652200  14.1228630   6.9285780
  16.1366830  14.1146530   7.8770700  15.4414220  14.4611720   6.5776790
  23.9405110  27.2929670  12.4033010  24.5827340  26.5922830  12.5165180
  24.4654460  28.0728110  12.2229900  25.7142730  28.0924570  15.6069070
  26.0498970  28.6791260  16.2846990  24.7943070  27.9617280  15.8366860
  13.5676860  31.6045150   2.9016610  13.9274500  32.2034490   2.2473880
  13.4269200  32.1505040   3.6751640  13.2646130  15.8819750  16.3892480
  12.5504650  16.0816670  16.9945090  13.6841170  15.1059320  16.7607280
  27.3677080  25.4950230   3.7886310  27.0798780  25.9562920   4.5764190
  28.1629250  25.0348000   4.0570530  13.5518720  29.8700010  17.3759010
  13.6609840  28.9294750  17.2354400  12.8999280  30.1354760  16.7272740
  21.5431310  28.1415900  18.7757130  21.2228180  27.4225140  19.3202820
  20.8689670  28.8170970  18.8493190  19.5845480  28.9876350   3.7190280
  19.5755580  29.7206040   3.1034790  18.6643840  28.7407930   3.8117240
  15.1852120  24.2091240   4.4637040  14.5780070  24.9490140   4.4732340
  15.6601470  24.2990600   3.6375240  24.7584910  18.3742060  14.1393930
  25.1265730  17.5537270  14.4673500  23.8983110  18.4343950  14.5549580
  28.1246940  17.3299000   4.9481490  27.4960100  17.4344670   4.2339720
  27.6298860  17.5495780   5.7375370  22.5705080  29.0504590   2.3815470
  22.6717060  28.8468580   1.4517450  21.6706820  28.7962870   2.5863250
  20.0930970  19.6084950   6.3639370  19.3847120  20.0771290   6.8052980
  20.3775450  18.9506960   6.9984560  21.7186900  21.0281650  14.3631900
  22.2172150  21.5027470  15.0283750  21.8609850  20.1045170  14.5701930
  24.1246400  16.3335610   7.8035160  24.0014180  16.3521740   6.8544670
  25.0730960  16.3814550   7.9233560  21.2123190  31.5690910   7.0763140
  21.4664690  31.5312300   6.1542510  20.2635670  31.4424240   7.0691390
  18.2965990  17.9170030   3.7390080  19.1456520  18.3540180   3.6730270
  17.9297260  18.2290290   4.5662140  28.9253760  17.2449610  15.2060290
  28.4227360  17.9855010  15.5454100  29.7410420  17.6333610  14.8897080
  27.2175770  22.4882790   8.6521650  26.2765910  22.5033020   8.8269340
  27.5319840  21.7018750   9.0981950  17.1957410  24.1702390   2.2125610
  17.9620680  24.0583750   2.7751040  17.2732100  23.4740360   1.5602380
  15.8904170  21.6027460   2.8958500  15.9707760  20.6554970   3.0075900
  16.7823920  21.9334340   3.0019160  29.2201350  29.6591640  10.3275910
  29.3448770  30.4822810  10.7999720  30.0866910  29.4482370   9.9800060
  16.6918880  31.7522850   9.9993040  17.4281360  31.2038310  10.2701610
  17.0759800  32.6178860   9.8599030  13.5764360  27.8196420   5.8734550
  12.6504140  28.0617560   5.8639960  14.0420790  28.6470680   5.7519300
  15.6977160  30.9368920  19.1878620  16.4989890  31.2580970  19.6014020
  15.1828980  30.5764500  19.9098530  24.5341790  27.0448790  19.1354030
  23.9279950  27.0680390  18.3949780  24.2295900  26.3131830  19.6721280
  28.8551360  30.1523290   3.2455350  28.5692870  29.7388430   2.4309530
  28.6570910  31.0811000   3.1255870  13.4174970  23.4242380  18.1314670
  13.9213990  22.8449660  18.7030900  12.6782390  23.7082610  18.6691040
  20.4712910  24.8313370  17.6650190  19.7058580  25.3998370  17.5804860
  20.6528870  24.5389580  16.7718420  23.5601320  25.2076600   2.2902950
  23.0111420  25.6545900   2.9345690  24.1820580  24.7025850   2.8140620
  27.6136260  26.5618700  18.2225210  28.3545730  26.8994460  17.7192670
  26.8508940  26.7310760  17.6694980  15.4498050  21.5671970  19.0264740
  15.4903390  21.2685840  19.9349970  16.3043550  21.9679580  18.8672260
  19.2276440  24.1667520   4.1868250  19.6492860  24.0007390   5.0299640
  19.3527280  23.3567750   3.6923390  17.3903860  20.1464070  16.9939230
  16.8600320  19.6555020  16.3662570  18.0591930  20.5748270  16.4597160
  26.2881920  24.6133530  16.7580420  26.7022940  24.7678610  17.6070840
  25.3532920  24.7388750  16.9206200  26.7604090  21.9529690  18.7619570
  27.3424860  21.1982010  18.6740050  26.9365860  22.4837130  17.9851050
  20.6437600  15.6699680  14.1063910  20.1954900  15.6923940  13.2609460
  20.0102800  15.2718700  14.7034210  21.0497150  24.5654010  14.7276350
  21.4685260  25.4086740  14.5552590  20.1305780  24.7026050  14.4983130
  23.3861050  22.2970190  16.1114190  23.5057260  21.7011330  16.8509030
  24.2455050  22.3339880  15.6915490  25.7248950  22.8507380  14.6876700
  25.1984170  23.3750000  14.0841840  26.0680290  23.4834770  15.3186430
  18.9004570  30.8707020  15.8434080  18.3625660  31.5953080  15.5242780
  19.1538530  30.3937360  15.0531420  20.1529820  18.8391540  17.3690010
  20.7429510  18.5307390  18.0567830  19.3350060  18.3671290  17.5249910
  24.9723250  18.4557350  17.6023030  24.2838770  17.7938890  17.5373020
  25.6929270  18.0095620  18.0471490  25.6023650  15.0508980   3.6613290
  25.8825940  14.2076880   4.0172710  24.8289380  15.2832090   4.1752040
  21.7566780  32.1058230  16.1020730  21.6825480  33.0093370  16.4093100
  20.8545620  31.7870130  16.0742800  20.1403070  16.2835990   2.1060490
  19.7925070  15.6059980   1.5262940  20.3415840  15.8225500   2.9203880
  22.3052110  31.2716740   3.7247090  23.2002900  31.6101710   3.7465850
  22.3369740  30.5496150   3.0971370  15.9448270  26.6443790   1.9534090
  16.3823140  27.1873460   2.6091670  16.4296000  25.8190740   1.9630430
  13.1594070  29.4332820   9.4054350  13.4897080  28.5653880   9.1732990
  13.5885070  29.6391340  10.2359310  17.7555990  27.7641830   7.0656320
  17.4551530  27.6406800   7.9660230  17.6493480  26.9050420   6.6572050
  13.6484280  30.3003410  12.1435980  13.2115270  30.4804210  12.9760130
  14.2161960  31.0578030  12.0017700  29.2846460  29.8020410  16.4313290
  28.6848450  29.8612970  15.6877210  29.4140360  28.8625390  16.5610140
  30.5247910  27.5438230   1.7683000  29.6940870  27.6114880   2.2390230
  30.7019740  28.4342350   1.4649860  29.9804370  24.2885710   4.2717200
  30.7423280  24.8582360   4.3776890  29.9958740  23.7212910   5.0425510
  13.4808710  22.8123640   8.5024860  12.8257550  22.5435280   7.8584560
  14.3186660  22.7028120   8.0526840  30.9864340  25.1435810   9.1159130
  31.3573170  24.3603130   8.7095100  31.6266270  25.8324910   8.9376430
  27.9698100  26.5272390  14.5289450  27.1557940  26.9569550  14.7915240
  28.3772300  27.1390800  13.9158500  26.4299150  17.6064930   2.7243350
  26.8484030  17.4195910   1.8840010  26.1235210  16.7543980   3.0346280
  29.9288880  22.5189070   6.4219150  29.5532480  21.7517000   5.9900440
  29.1992000  22.9011770   6.9094080  14.5184640  23.1976210  13.0428200
  14.8857680  23.1103610  13.9224220  13.9495460  22.4342760  12.9435060
  29.3188500  21.6660590  16.0558670  29.0874590  21.4373340  15.1556620
  29.5793050  22.5860140  16.0103560  14.0700640  20.1085300  16.9486620
  13.1756690  20.0752060  17.2880330  14.6098190  20.3072090  17.7137870
  12.6946790  20.0222570   4.4450190  11.7910870  20.2852770   4.2701850
  13.1787410  20.2933740   3.6650150  29.2039840  20.7446560   9.7226390
  29.7277320  20.2509210   9.0916560  29.7899260  20.8796920  10.4673960
  29.3829560  20.8286430  13.2445940  28.4332270  20.7949970  13.3590930
  29.5642570  21.7386540  13.0095710  15.2374000  19.0788110   2.3544570
  15.9465700  18.6571330   1.8691850  14.5213940  19.1463340   1.7227920
  28.6939810  20.0019910   5.6618800  29.1898930  19.7690780   6.4467680
  28.4955880  19.1631750   5.2456440  14.5740350  14.3833630  11.2969840
  15.2216540  13.8331010  10.8565000  14.9942190  14.6376780  12.1185650
  30.1226970  18.6380860   8.1956480  30.0126250  18.4836900   9.1338750
  30.8834560  18.1101800   7.9531890  28.4692690  14.5774990  14.6539480
  29.1064910  15.1909130  15.0198670  28.6167580  14.6135650  13.7088710
  31.0855730  17.2399440   4.0619330  30.2907230  17.1744560   4.5912240
  31.2899010  18.1750080   4.0504680  28.0274150  31.2790990   8.0557720
  28.6233220  30.9575560   7.3792140  28.2852300  30.8062810   8.8470990
  14.3272350  14.5389300  14.0395160  13.9787170  14.9953120  14.8053340
  13.9960050  13.6446430  14.1217590  15.9336720  27.7108900  18.2048350
  15.8906350  27.3401810  19.0862810  16.0647730  28.6486470  18.3450170
  19.6342750  29.2668490  13.8058070  19.3934110  29.5343050  12.9188590
  20.5745390  29.4374220  13.8608930  21.8397170  15.7301180  17.5614580
  21.7786060  16.3223010  18.3109990  22.7797550  15.6227140  17.4164840
  24.4771730  15.3871240  17.2006870  25.0912140  15.7050530  16.5387950
  25.0221290  14.9019830  17.8202730  30.8946910  31.2862870  14.6068710
  30.4005190  31.6831740  13.8895840  30.2860200  30.6612080  15.0005990
  14.9992990  14.0665500  17.3145930  15.5475980  13.8853550  16.5512040
  15.0648300  13.2759610  17.8502240  15.7724750  30.6571150  15.3246130
  15.1785070  30.5255850  16.0636170  15.7648590  29.8209290  14.8588230
  25.2179770  13.9503380  13.5276160  24.3439610  14.2838490  13.3249090
  25.1090520  13.4776560  14.3528030  26.1251750  16.1574250  14.9117880
  25.7965110  15.3426010  14.5319610  27.0734050  16.1144060  14.7883570
  28.5786360  31.9286290  11.8855450  28.1189330  32.6802100  11.5113470
  27.9498820  31.2092760  11.8270250  15.4036980  28.0229530  14.2754170
  14.6771040  27.4034820  14.2080120  15.4646130  28.4170140  13.4052250
  19.0082080  30.2374530  11.0603580  19.5247100  29.6261890  10.5351840
  19.6579460  30.7403310  11.5514590  21.7477580  31.1283020  11.8872560
  22.0355390  30.8737320  11.0105570  22.2600800  30.5760380  12.4778130
  22.9654590  14.8673220  12.4669070  22.1826380  15.3418720  12.7465830
  22.6717520  13.9628050  12.3582250  27.5175660  15.5696320  10.5118160
  27.9583750  15.5141420   9.6639760  27.2483250  16.4854330  10.5828340
  29.3814230  15.2011560   8.5226980  29.3202630  14.2572780   8.3758000
  30.1606260  15.3091650   9.0680440  13.6866980  31.3403920   7.4850930
  13.5189020  30.7074600   8.1832820  12.8201490  31.5463320   7.1345120
  14.3095000  15.1720700   4.9882790  15.0674360  15.2849580   4.4146820
  13.8472170  16.0089900   4.9426220  20.8508810  17.2859970   7.9785100
  20.0383320  16.9116860   7.6380980  21.3550450  16.5305050   8.2806290
  25.3533790  13.9502420   9.2168170  25.9563160  14.5222630   9.6916690
  24.6126780  14.5141860   8.9942070  28.4968390  14.3523980   4.4908450
  28.6919020  15.2507430   4.7575880  27.7098260  14.1211060   4.9841400
  15.2929680  30.0337150   4.9301070  14.7677300  30.4145180   4.2263030
  15.2174260  30.6587920   5.6510780  16.6820150  15.6984750   3.5284760
  17.2112910  14.9114550   3.3992710  17.3148470  16.3775940   3.7620290
  18.8757990  15.4359890   6.5830150  18.2460730  14.7347200   6.7500280
  18.3363130  16.1964020   6.3663310  21.8149940  32.0499120  19.2540760
  22.7417250  31.8143390  19.2976720  21.8000370  32.8771120  18.7726790
  30.0495000  31.5924690   6.2515010  30.2247190  30.9062430   5.6075930
  29.3516570  32.1171740   5.8591680  19.0013550  14.7143870  19.0182640
  18.7197820  15.2177470  18.2543460  19.3833250  13.9165620  18.6524770
  17.8922650  31.9819530   3.8050320  18.6241470  31.6978810   3.2574210
  18.1516320  31.7432810   4.6949700  17.0537440  28.0984260   3.8096650
  16.4246320  28.5669360   4.3582480  17.1685270  27.2533480   4.2442840
  25.6029010  14.1297450  19.5963110  25.4894460  14.4492060  20.4914630
  26.4198750  14.5309960  19.3000390  28.3827500  31.2768980  19.0781800
  29.1752820  30.7818210  18.8707760  28.6760650  31.9559120  19.6857410
  24.5087160   3.3746430  46.2828320  24.4281210   2.4601040  46.0120030
  24.0951580   3.8713500  45.5768030  22.6405200   5.1525450  48.1637590
  21.8647300   4.6725890  48.4536160  23.2918130   4.4731100  47.9893750
  16.6571030   5.4645260  49.0413350  15.8255910   5.2093970  49.4409860
  17.2652010   5.5356030  49.7771270  26.6612630   9.5585640  46.9436720
  26.1994160   8.7872880  47.2723890  27.4738180   9.5851710  47.4489170
  16.6372290   9.4985350  49.2371370  16.9400330   8.6083090  49.0581590
  17.3815880  10.0555570  49.0093620  13.0295990   3.0252800  48.7095440
  13.6012100   2.2575000  48.7099080  13.0297530   3.3241560  47.8002050
  22.8875940  11.8443650  46.5640710  22.2687380  12.3001150  45.9935150
  23.7427720  11.9995110  46.1630410  22.0814190   7.8282640  48.1707750
  22.0122470   6.8872580  48.0096880  22.8434050   7.9184050  48.7430320
  23.7539290   6.7282890  43.9572620  23.1356560   7.1932340  43.3935340
  24.2662540   7.4210370  44.3742130  18.6171050   6.2558760  50.6356220
  18.2840430   6.8827680  51.2777290  18.7937730   6.7820640  49.8557890
  17.8290150   8.2239560  52.4505400  18.4464150   8.8990640  52.1689850
  16.9683270   8.6327540  52.3592900  13.1222490   7.4139420  41.3312250
  12.7450470   7.9026520  40.5997150  13.3795560   8.0864700  41.9618780
  28.7467740   9.6878970  50.3660040  28.0631260  10.3578080  50.3576710
  29.2862030   9.8859620  49.6004900  26.2826480  11.5323100  49.0805220
  26.2953640  11.1285390  48.2127480  25.7301700  12.3070390  48.9766650
  27.5771900   8.2539320  44.1695390  27.4668230   7.3113650  44.2944810
  27.5740150   8.6154960  45.0558150  25.6811920   6.4352940  50.4087830
  26.0980710   6.2213050  49.5741290  26.4051740   6.6925730  50.9796450
  23.1192180   3.8804640  43.5257880  22.1921460   3.8142020  43.7546350
  23.2717000   4.8184770  43.4113120  29.6274020   4.8340160  50.5004070
  28.7992650   4.9033250  50.0254200  30.2224500   5.4194470  50.0319900
  27.1489470   5.4424940  44.0293130  26.5301890   5.1044490  43.3819430
  27.1313920   4.7984700  44.7372320  18.7248820   4.4069380  46.3077610
  18.3205820   3.6946630  45.8123510  18.8111940   4.0622620  47.1965650
  19.1930520   8.0936940  48.4716820  18.8958810   7.4882410  47.7924600
  20.1430340   8.1314250  48.3606180  27.2816130  11.6668810  52.1339920
  26.8046690  12.4741000  51.9412530  26.5977920  11.0147140  52.2866130
  18.2848950   7.8318630  55.1224620  17.3877480   8.0558600  55.3698020
  18.3101820   7.9553570  54.1736020  25.3254170   4.6811750  41.0365880
  25.7647450   3.8434180  40.8903700  26.0382590   5.3141150  41.1230020
  17.1120170   4.7031950  53.6981990  16.9727940   5.5754750  54.0669390
  16.2301530   4.3604760  53.5529930  23.4349550   9.6207820  45.0047120
  23.8745460  10.3632150  44.5902510  23.3736440   9.8634390  45.9286080
  18.9100520  10.6453650  55.9067140  18.8815950  11.0496600  55.0395570
  18.7465490   9.7164010  55.7438740  15.4253450   3.3014360  43.8084260
  15.3051050   4.0276450  43.1965530  15.1154340   2.5317270  43.3312170
  13.0638820   6.4729500  49.6152900  13.1419240   6.6078270  48.6708620
  13.6780500   5.7645390  49.8081020  14.3086450   8.1729690  46.0259080
  13.9014530   8.3144280  45.1712680  15.1999460   7.8889850  45.8230290
  30.2648590   8.6193600  54.3631320  30.3911650   8.3805480  53.4448500
  30.3069970   7.7878140  54.8353400  24.1265330  12.3221600  52.9326130
  24.6410000  12.2329610  53.7348560  23.2834410  12.6681300  53.2254040
  26.1019730  12.6076940  42.3610130  25.9420870  12.3179880  43.2591960
  25.9366440  11.8317070  41.8255360  18.5808110  12.3875470  44.1381750
  18.4050590  11.4711010  43.9249550  17.7263850  12.7462760  44.3779550
  25.8045860  10.1164500  40.9208130  25.1111020  10.1141790  40.2610410
  26.5468720   9.6923820  40.4902300  25.3695790  11.7427210  44.9956620
  25.8252740  10.9616590  45.3095240  25.7088310  12.4534030  45.5397800
  13.1198340   7.5143670  52.1547360  13.2829380   7.0449030  51.3366730
  13.5850790   7.0067230  52.8196200  24.2741140   2.2328650  56.0238700
  24.5994550   1.3992400  55.6840930  25.0621470   2.7557170  56.1717030
  17.6831330   1.7683000  44.9189180  17.4572250   1.5520170  45.8235800
  16.9023860   2.2011460  44.5735150  24.9129090   1.7746370  43.5179830
  24.3137980   2.4982170  43.3343450  25.4608700   1.7123150  42.7356280
  20.1230540   2.6668580  55.5849450  20.0274140   1.7263310  55.4349850
  20.9662520   2.8883650  55.1897520  24.1049100   3.0015660  49.6433890
  23.3730220   3.5102470  49.9923990  23.7073440   2.1845640  49.3422670
  19.6168140   2.9883080  40.4376440  19.0485040   2.5401330  39.8112350
  20.3257140   3.3475860  39.9041590  14.6937320   6.8895100  54.3143170
  14.3092110   6.2488770  54.9126130  15.0049510   7.5931220  54.8837900
  20.8434460   3.7371640  49.7951790  21.2104590   3.2630210  50.5413130
  20.6539520   4.6113210  50.1360130  18.6333830   2.7780280  52.1136000
  18.3290900   3.6572260  52.3386360  19.5880290   2.8380070  52.1493440
  17.1615620   6.9841270  42.7102850  16.3877880   6.4438890  42.5501570
  17.8910250   6.4647880  42.3720610  27.9203600   5.9806630  48.5029240
  28.6402720   6.4761920  48.1125350  27.7185420   5.3024520  47.8583110
  23.3022400   6.0515690  54.3898240  23.2359710   5.1311360  54.1355830
  22.6727540   6.1491130  55.1042880  17.2053020   6.6521650  46.3481660
  17.7231690   5.8489910  46.2938550  16.7537040   6.5900790  47.1898490
  22.0922520   7.9187930  41.6208960  22.4338220   8.6630160  41.1252280
  21.2635230   8.2319050  41.9833790  14.6897560   3.6183020  53.2607360
  14.3312500   4.2836870  53.8480700  14.3952120   2.7866570  53.6319980
  17.8910680   4.0767260  56.1446910  17.5910820   4.2224440  55.2474730
  18.6621920   3.5172550  56.0520300  23.2339130   8.8736260  54.1402040
  23.2483670   7.9417220  53.9220950  22.5264230   8.9596020  54.7791810
  28.3676200   3.0576080  40.4100650  28.2839920   3.4890300  39.5597090
  29.0870390   3.5174430  40.8427470  29.4450340   5.5143600  53.4870620
  28.7198530   6.1072380  53.2900010  29.9725800   5.5067140  52.6883990
  29.3963450   9.9118340  43.1382780  28.7539610   9.2573960  43.4126500
  29.0094110  10.3173430  42.3623450  24.9749930   7.2403770  46.9854470
  25.3273750   6.6431900  46.3255840  24.0912260   6.9148000  47.1562720
  21.0613210   8.0001460  44.3924880  21.7484340   8.5470670  44.7732470
  20.2745630   8.5442190  44.4274490  13.2005610   3.6174280  39.8841960
  14.0700460   3.8999080  40.1677880  12.7095930   4.4310150  39.7690770
  20.3640420   5.0047490  44.0050240  20.8203200   5.8152740  44.2310430
  20.0128630   4.6870630  44.8368730  22.6673030  10.5153830  51.2342540
  23.3115250  10.7213210  51.9115960  23.0302470   9.7542230  50.7813390
  23.9405110   8.5186180  49.9519990  24.5827340   7.8179340  50.0652160
  24.4654460   9.2984620  49.7716880  27.7860830   8.8034800  39.6759130
  27.5598410   8.0865240  40.2683770  27.3957030   8.5547240  38.8380880
  25.7142730   9.3181080  53.1556050  26.0498970   9.9047770  53.8333970
  24.7943070   9.1873790  53.3853840  13.5676860  12.8301660  40.4503590
  13.9274500  13.4291000  39.7960860  13.4269200  13.3761550  41.2238620
  27.3677080   6.7206740  41.3373290  27.0798780   7.1819430  42.1251170
  28.1629250   6.2604510  41.6057510  13.5518720  11.0956520  54.9245990
  13.6609840  10.1551260  54.7841380  12.8999280  11.3611270  54.2759720
  19.5845480  10.2132860  41.2677260  19.5755580  10.9462550  40.6521770
  18.6643840   9.9664440  41.3604220  15.1852120   5.4347750  42.0124020
  14.5780070   6.1746650  42.0219320  15.6601470   5.5247110  41.1862220
  22.5705080  10.2761100  39.9302450  22.6717060  10.0725090  39.0004430
  21.6706820  10.0219380  40.1350230  21.2123190  12.7947420  44.6250120
  21.4664690  12.7568810  43.7029490  20.2635670  12.6680750  44.6178370
  27.2175770   3.7139300  46.2008630  26.2765910   3.7289530  46.3756320
  27.5319840   2.9275260  46.6468930  17.1957410   5.3958900  39.7612590
  17.9620680   5.2840260  40.3238020  17.2732100   4.6996870  39.1089360
  15.8904170   2.8283970  40.4445480  15.9707760   1.8811480  40.5562880
  16.7823920   3.1590850  40.5506140  29.2201350  10.8848150  47.8762890
  29.3448770  11.7079320  48.3486700  30.0866910  10.6738880  47.5287040
  16.6918880  12.9779360  47.5480020  17.4281360  12.4294820  47.8188590
  17.0759800  13.8435370  47.4086010  13.5764360   9.0452930  43.4221530
  12.6504140   9.2874070  43.4126940  14.0420790   9.8727190  43.3006280
  19.8021190  12.1509670  39.3705590  20.5949800  12.4398500  38.9187380
  19.2825540  11.7201840  38.6918070  25.9642160  11.9985590  55.2950420
  26.9163910  11.9143610  55.2450660  25.8170380  12.6627300  55.9684210
  28.8551360  11.3779800  40.7942330  28.5692870  10.9644940  39.9796510
  28.6570910  12.3067510  40.6742850  13.4174970   4.6498890  55.6801650
  13.9213990   4.0706170  56.2517880  12.6782390   4.9339120  56.2178020
  20.3198590   7.3713080  39.2347940  20.2149230   6.7565430  39.9609320
  20.1522810   6.8478970  38.4510950  20.4712910   6.0569880  55.2137170
  19.7058580   6.6254880  55.1291840  20.6528870   5.7646090  54.3205400
  23.5601320   6.4333110  39.8389930  23.0111420   6.8802410  40.4832670
  24.1820580   5.9282360  40.3627600  27.6136260   7.7875210  55.7712190
  28.3545730   8.1250970  55.2679650  26.8508940   7.9567270  55.2181960
  19.2276440   5.3924030  41.7355230  19.6492860   5.2263900  42.5786620
  19.3527280   4.5824260  41.2410370  21.7404080   4.4161640  38.9832330
  22.2609740   3.7010660  38.6173480  22.3872480   5.0547510  39.2832840
  26.2881920   5.8390040  54.3067400  26.7022940   5.9935120  55.1557820
  25.3532920   5.9645260  54.4693180  26.7604090   3.1786200  56.3106550
  27.3424860   2.4238520  56.2227030  26.9365860   3.7093640  55.5338030
  21.0497150   5.7910520  52.2763330  21.4685260   6.6343250  52.1039570
  20.1305780   5.9282560  52.0470110  23.3861050   3.5226700  53.6601170
  23.5057260   2.9267840  54.3996010  24.2455050   3.5596390  53.2402470
  25.7248950   4.0763890  52.2363680  25.1984170   4.6006510  51.6328820
  26.0680290   4.7091280  52.8673410  18.9004570  12.0963530  53.3921060
  18.3625660  12.8209590  53.0729760  19.1538530  11.6193870  52.6018400
  21.7566780  13.3314740  53.6507710  21.6825480  14.2349880  53.9580080
  20.8545620  13.0126640  53.6229780  22.3052110  12.4973250  41.2734070
  23.2002900  12.8358220  41.2952830  22.3369740  11.7752660  40.6458350
  15.9448270   7.8700300  39.5021070  16.3823140   8.4129970  40.1578650
  16.4296000   7.0447250  39.5117410  13.1594070  10.6589330  46.9541330
  13.4897080   9.7910390  46.7219970  13.5885070  10.8647850  47.7846290
  17.7555990   8.9898340  44.6143300  17.4551530   8.8663310  45.5147210
  17.6493480   8.1306930  44.2059030  13.6484280  11.5259920  49.6922960
  13.2115270  11.7060720  50.5247110  14.2161960  12.2834540  49.5504680
  29.2846460  11.0276920  53.9800270  28.6848450  11.0869480  53.2364190
  29.4140360  10.0881900  54.1097120  30.5247910   8.7694740  39.3169980
  29.6940870   8.8371390  39.7877210  30.7019740   9.6598860  39.0136840
  29.9804370   5.5142220  41.8204180  30.7423280   6.0838870  41.9263870
  29.9958740   4.9469420  42.5912490  13.4808710   4.0380150  46.0511840
  12.8257550   3.7691790  45.4071540  14.3186660   3.9284630  45.6013820
  30.9864340   6.3692320  46.6646110  31.3573170   5.5859640  46.2582080
  31.6266270   7.0581420  46.4863410  27.9698100   7.7528900  52.0776430
  27.1557940   8.1826060  52.3402220  28.3772300   8.3647310  51.4645480
  30.0323540   5.8076590  38.9776700  30.3072380   6.7155470  38.8495920
  29.8434280   5.7439120  39.9138690  29.9288880   3.7445580  43.9706130
  29.5532480   2.9773510  43.5387420  29.1992000   4.1268280  44.4581060
  14.5184640   4.4232720  50.5915180  14.8857680   4.3360120  51.4711200
  13.9495460   3.6599270  50.4922040  29.3188500   2.8917100  53.6045650
  29.0874590   2.6629850  52.7043600  29.5793050   3.8116650  53.5590540
  29.2039840   1.9703070  47.2713370  29.7277320   1.4765720  46.6403540
  29.7899260   2.1053430  48.0160940  29.3829560   2.0542940  50.7932920
  28.4332270   2.0206480  50.9077910  29.5642570   2.9643050  50.5582690
  28.0274150  12.5047500  45.6044700  28.6233220  12.1832070  44.9279120
  28.2852300  12.0319320  46.3957970  15.9336720   8.9365410  55.7535330
  15.8906350   8.5658320  56.6349790  16.0647730   9.8742980  55.8937150
  19.6342750  10.4925000  51.3545050  19.3934110  10.7599560  50.4675570
  20.5745390  10.6630730  51.4095910  30.8946910  12.5119380  52.1555690
  30.4005190  12.9088250  51.4382820  30.2860200  11.8868590  52.5492970
  15.7724750  11.8827660  52.8733110  15.1785070  11.7512360  53.6123150
  15.7648590  11.0465800  52.4075210  28.5786360  13.1542800  49.4342430
  28.1189330  13.9058610  49.0600450  27.9498820  12.4349270  49.3757230
  15.4036980   9.2486040  51.8241150  14.6771040   8.6291330  51.7567100
  15.4646130   9.6426650  50.9539230  19.0082080  11.4631040  48.6090560
  19.5247100  10.8518400  48.0838820  19.6579460  11.9659820  49.1001570
  21.7477580  12.3539530  49.4359540  22.0355390  12.0993830  48.5592550
  22.2600800  11.8016890  50.0265110  13.6866980  12.5660430  45.0337910
  13.5189020  11.9331110  45.7319800  12.8201490  12.7719830  44.6832100
  15.2929680  11.2593660  42.4788050  14.7677300  11.6401690  41.7750010
  15.2174260  11.8844430  43.1997760  30.0495000  12.8181200  43.8001990
  30.2247190  12.1318940  43.1562910  29.3516570  13.3428250  43.4078660
  17.8922650  13.2076040  41.3537300  18.6241470  12.9235320  40.8061190
  18.1516320  12.9689320  42.2436680  17.0537440   9.3240770  41.3583630
  16.4246320   9.7925870  41.9069460  17.1685270   8.4789990  41.7929820
  24.5087160   3.3746430  27.5084830  24.4281210   2.4601040  27.2376540
  24.0951580   3.8713500  26.8024540  22.6405200   5.1525450  29.3894100
  21.8647300   4.6725890  29.6792670  23.2918130   4.4731100  29.2150260
  16.6571030   5.4645260  30.2669860  15.8255910   5.2093970  30.6666370
  17.2652010   5.5356030  31.0027780  26.6612630   9.5585640  28.1693230
  26.1994160   8.7872880  28.4980400  27.4738180   9.5851710  28.6745680
  16.6372290   9.4985350  30.4627880  16.9400330   8.6083090  30.2838100
  17.3815880  10.0555570  30.2350130  13.0295990   3.0252800  29.9351950
  13.6012100   2.2575000  29.9355590  13.0297530   3.3241560  29.0258560
  22.8875940  11.8443650  27.7897220  22.2687380  12.3001150  27.2191660
  23.7427720  11.9995110  27.3886920  22.0814190   7.8282640  29.3964260
  22.0122470   6.8872580  29.2353390  22.8434050   7.9184050  29.9686830
  23.7539290   6.7282890  25.1829130  23.1356560   7.1932340  24.6191850
  24.2662540   7.4210370  25.5998640  18.6171050   6.2558760  31.8612730
  18.2840430   6.8827680  32.5033800  18.7937730   6.7820640  31.0814400
  17.8290150   8.2239560  33.6761910  18.4464150   8.8990640  33.3946360
  16.9683270   8.6327540  33.5849410  13.1222490   7.4139420  22.5568760
  12.7450470   7.9026520  21.8253660  13.3795560   8.0864700  23.1875290
  28.7467740   9.6878970  31.5916550  28.0631260  10.3578080  31.5833220
  29.2862030   9.8859620  30.8261410  26.2826480  11.5323100  30.3061730
  26.2953640  11.1285390  29.4383990  25.7301700  12.3070390  30.2023160
  27.5771900   8.2539320  25.3951900  27.4668230   7.3113650  25.5201320
  27.5740150   8.6154960  26.2814660  25.6811920   6.4352940  31.6344340
  26.0980710   6.2213050  30.7997800  26.4051740   6.6925730  32.2052960
  23.1192180   3.8804640  24.7514390  22.1921460   3.8142020  24.9802860
  23.2717000   4.8184770  24.6369630  29.6274020   4.8340160  31.7260580
  28.7992650   4.9033250  31.2510710  30.2224500   5.4194470  31.2576410
  27.1489470   5.4424940  25.2549640  26.5301890   5.1044490  24.6075940
  27.1313920   4.7984700  25.9628830  18.7248820   4.4069380  27.5334120
  18.3205820   3.6946630  27.0380020  18.8111940   4.0622620  28.4222160
  19.1930520   8.0936940  29.6973330  18.8958810   7.4882410  29.0181110
  20.1430340   8.1314250  29.5862690  27.2816130  11.6668810  33.3596430
  26.8046690  12.4741000  33.1669040  26.5977920  11.0147140  33.5122640
  18.2848950   7.8318630  36.3481130  17.3877480   8.0558600  36.5954530
  18.3101820   7.9553570  35.3992530  25.3254170   4.6811750  22.2622390
  25.7647450   3.8434180  22.1160210  26.0382590   5.3141150  22.3486530
  17.1120170   4.7031950  34.9238500  16.9727940   5.5754750  35.2925900
  16.2301530   4.3604760  34.7786440  23.4349550   9.6207820  26.2303630
  23.8745460  10.3632150  25.8159020  23.3736440   9.8634390  27.1542590
  18.9100520  10.6453650  37.1323650  18.8815950  11.0496600  36.2652080
  18.7465490   9.7164010  36.9695250  15.4253450   3.3014360  25.0340770
  15.3051050   4.0276450  24.4222040  15.1154340   2.5317270  24.5568680
  30.8615340  11.4280750  38.4287820  31.3375060  11.9063640  39.1076900
  31.4822500  11.3598240  37.7033320  13.0638820   6.4729500  30.8409410
  13.1419240   6.6078270  29.8965130  13.6780500   5.7645390  31.0337530
  14.3086450   8.1729690  27.2515590  13.9014530   8.3144280  26.3969190
  15.1999460   7.8889850  27.0486800  30.2648590   8.6193600  35.5887830
  30.3911650   8.3805480  34.6705010  30.3069970   7.7878140  36.0609910
  24.1265330  12.3221600  34.1582640  24.6410000  12.2329610  34.9605070
  23.2834410  12.6681300  34.4510550  26.1019730  12.6076940  23.5866640
  25.9420870  12.3179880  24.4848470  25.9366440  11.8317070  23.0511870
  18.5808110  12.3875470  25.3638260  18.4050590  11.4711010  25.1506060
  17.7263850  12.7462760  25.6036060  25.8045860  10.1164500  22.1464640
  25.1111020  10.1141790  21.4866920  26.5468720   9.6923820  21.7158810
  25.3695790  11.7427210  26.2213130  25.8252740  10.9616590  26.5351750
  25.7088310  12.4534030  26.7654310  13.1198340   7.5143670  33.3803870
  13.2829380   7.0449030  32.5623240  13.5850790   7.0067230  34.0452710
  24.2741140   2.2328650  37.2495210  24.5994550   1.3992400  36.9097440
  25.0621470   2.7557170  37.3973540  17.6831330   1.7683000  26.1445690
  17.4572250   1.5520170  27.0492310  16.9023860   2.2011460  25.7991660
  24.9129090   1.7746370  24.7436340  24.3137980   2.4982170  24.5599960
  25.4608700   1.7123150  23.9612790  20.1230540   2.6668580  36.8105960
  20.0274140   1.7263310  36.6606360  20.9662520   2.8883650  36.4154030
  24.1049100   3.0015660  30.8690400  23.3730220   3.5102470  31.2180500
  23.7073440   2.1845640  30.5679180  19.6168140   2.9883080  21.6632950
  19.0485040   2.5401330  21.0368860  20.3257140   3.3475860  21.1298100
  14.6937320   6.8895100  35.5399680  14.3092110   6.2488770  36.1382640
  15.0049510   7.5931220  36.1094410  20.8434460   3.7371640  31.0208300
  21.2104590   3.2630210  31.7669640  20.6539520   4.6113210  31.3616640
  18.6333830   2.7780280  33.3392510  18.3290900   3.6572260  33.5642870
  19.5880290   2.8380070  33.3749950  17.1615620   6.9841270  23.9359360
  16.3877880   6.4438890  23.7758080  17.8910250   6.4647880  23.5977120
  27.9203600   5.9806630  29.7285750  28.6402720   6.4761920  29.3381860
  27.7185420   5.3024520  29.0839620  23.3022400   6.0515690  35.6154750
  23.2359710   5.1311360  35.3612340  22.6727540   6.1491130  36.3299390
  17.2053020   6.6521650  27.5738170  17.7231690   5.8489910  27.5195060
  16.7537040   6.5900790  28.4155000  22.0922520   7.9187930  22.8465470
  22.4338220   8.6630160  22.3508790  21.2635230   8.2319050  23.2090300
  14.6897560   3.6183020  34.4863870  14.3312500   4.2836870  35.0737210
  14.3952120   2.7866570  34.8576490  17.8910680   4.0767260  37.3703420
  17.5910820   4.2224440  36.4731240  18.6621920   3.5172550  37.2776810
  23.2339130   8.8736260  35.3658550  23.2483670   7.9417220  35.1477460
  22.5264230   8.9596020  36.0048320  28.3676200   3.0576080  21.6357160
  28.2839920   3.4890300  20.7853600  29.0870390   3.5174430  22.0683980
  29.4450340   5.5143600  34.7127130  28.7198530   6.1072380  34.5156520
  29.9725800   5.5067140  33.9140500  29.3963450   9.9118340  24.3639290
  28.7539610   9.2573960  24.6383010  29.0094110  10.3173430  23.5879960
  24.9749930   7.2403770  28.2110980  25.3273750   6.6431900  27.5512350
  24.0912260   6.9148000  28.3819230  21.0613210   8.0001460  25.6181390
  21.7484340   8.5470670  25.9988980  20.2745630   8.5442190  25.6531000
  13.2005610   3.6174280  21.1098470  14.0700460   3.8999080  21.3934390
  12.7095930   4.4310150  20.9947280  20.3640420   5.0047490  25.2306750
  20.8203200   5.8152740  25.4566940  20.0128630   4.6870630  26.0625240
  22.6673030  10.5153830  32.4599050  23.3115250  10.7213210  33.1372470
  23.0302470   9.7542230  32.0069900  23.9405110   8.5186180  31.1776500
  24.5827340   7.8179340  31.2908670  24.4654460   9.2984620  30.9973390
  27.7860830   8.8034800  20.9015640  27.5598410   8.0865240  21.4940280
  27.3957030   8.5547240  20.0637390  25.7142730   9.3181080  34.3812560
  26.0498970   9.9047770  35.0590480  24.7943070   9.1873790  34.6110350
  13.5676860  12.8301660  21.6760100  13.9274500  13.4291000  21.0217370
  13.4269200  13.3761550  22.4495130  27.3677080   6.7206740  22.5629800
  27.0798780   7.1819430  23.3507680  28.1629250   6.2604510  22.8314020
  13.5518720  11.0956520  36.1502500  13.6609840  10.1551260  36.0097890
  12.8999280  11.3611270  35.5016230  21.5431310   9.3672410  37.5500620
  21.2228180   8.6481650  38.0946310  20.8689670  10.0427480  37.6236680
  19.5845480  10.2132860  22.4933770  19.5755580  10.9462550  21.8778280
  18.6643840   9.9664440  22.5860730  15.1852120   5.4347750  23.2380530
  14.5780070   6.1746650  23.2475830  15.6601470   5.5247110  22.4118730
  22.5705080  10.2761100  21.1558960  22.6717060  10.0725090  20.2260940
  21.6706820  10.0219380  21.3606740  21.2123190  12.7947420  25.8506630
  21.4664690  12.7568810  24.9286000  20.2635670  12.6680750  25.8434880
  27.2175770   3.7139300  27.4265140  26.2765910   3.7289530  27.6012830
  27.5319840   2.9275260  27.8725440  17.1957410   5.3958900  20.9869100
  17.9620680   5.2840260  21.5494530  17.2732100   4.6996870  20.3345870
  15.8904170   2.8283970  21.6701990  15.9707760   1.8811480  21.7819390
  16.7823920   3.1590850  21.7762650  29.2201350  10.8848150  29.1019400
  29.3448770  11.7079320  29.5743210  30.0866910  10.6738880  28.7543550
  16.6918880  12.9779360  28.7736530  17.4281360  12.4294820  29.0445100
  17.0759800  13.8435370  28.6342520  13.5764360   9.0452930  24.6478040
  12.6504140   9.2874070  24.6383450  14.0420790   9.8727190  24.5262790
  15.6977160  12.1625430  37.9622110  16.4989890  12.4837480  38.3757510
  15.1828980  11.8021010  38.6842020  19.8021190  12.1509670  20.5962100
  20.5949800  12.4398500  20.1443890  19.2825540  11.7201840  19.9174580
  24.5341790   8.2705300  37.9097520  23.9279950   8.2936900  37.1693270
  24.2295900   7.5388340  38.4464770  25.9642160  11.9985590  36.5206930
  26.9163910  11.9143610  36.4707170  25.8170380  12.6627300  37.1940720
  28.8551360  11.3779800  22.0198840  28.5692870  10.9644940  21.2053020
  28.6570910  12.3067510  21.8999360  13.4174970   4.6498890  36.9058160
  13.9213990   4.0706170  37.4774390  12.6782390   4.9339120  37.4434530
  20.3198590   7.3713080  20.4604450  20.2149230   6.7565430  21.1865830
  20.1522810   6.8478970  19.6767460  20.4712910   6.0569880  36.4393680
  19.7058580   6.6254880  36.3548350  20.6528870   5.7646090  35.5461910
  23.5601320   6.4333110  21.0646440  23.0111420   6.8802410  21.7089180
  24.1820580   5.9282360  21.5884110  27.6136260   7.7875210  36.9968700
  28.3545730   8.1250970  36.4936160  26.8508940   7.9567270  36.4438470
  15.4498050   2.7928480  37.8008230  15.4903390   2.4942350  38.7093460
  16.3043550   3.1936090  37.6415750  19.2276440   5.3924030  22.9611740
  19.6492860   5.2263900  23.8043130  19.3527280   4.5824260  22.4666880
  21.7404080   4.4161640  20.2088840  22.2609740   3.7010660  19.8429990
  22.3872480   5.0547510  20.5089350  26.2881920   5.8390040  35.5323910
  26.7022940   5.9935120  36.3814330  25.3532920   5.9645260  35.6949690
  26.7604090   3.1786200  37.5363060  27.3424860   2.4238520  37.4483540
  26.9365860   3.7093640  36.7594540  21.0497150   5.7910520  33.5019840
  21.4685260   6.6343250  33.3296080  20.1305780   5.9282560  33.2726620
  23.3861050   3.5226700  34.8857680  23.5057260   2.9267840  35.6252520
  24.2455050   3.5596390  34.4658980  25.7248950   4.0763890  33.4620190
  25.1984170   4.6006510  32.8585330  26.0680290   4.7091280  34.0929920
  18.9004570  12.0963530  34.6177570  18.3625660  12.8209590  34.2986270
  19.1538530  11.6193870  33.8274910  21.7566780  13.3314740  34.8764220
  21.6825480  14.2349880  35.1836590  20.8545620  13.0126640  34.8486290
  22.3052110  12.4973250  22.4990580  23.2002900  12.8358220  22.5209340
  22.3369740  11.7752660  21.8714860  15.9448270   7.8700300  20.7277580
  16.3823140   8.4129970  21.3835160  16.4296000   7.0447250  20.7373920
  13.1594070  10.6589330  28.1797840  13.4897080   9.7910390  27.9476480
  13.5885070  10.8647850  29.0102800  17.7555990   8.9898340  25.8399810
  17.4551530   8.8663310  26.7403720  17.6493480   8.1306930  25.4315540
  13.6484280  11.5259920  30.9179470  13.2115270  11.7060720  31.7503620
  14.2161960  12.2834540  30.7761190  29.2846460  11.0276920  35.2056780
  28.6848450  11.0869480  34.4620700  29.4140360  10.0881900  35.3353630
  30.5247910   8.7694740  20.5426490  29.6940870   8.8371390  21.0133720
  30.7019740   9.6598860  20.2393350  29.9804370   5.5142220  23.0460690
  30.7423280   6.0838870  23.1520380  29.9958740   4.9469420  23.8169000
  13.4808710   4.0380150  27.2768350  12.8257550   3.7691790  26.6328050
  14.3186660   3.9284630  26.8270330  30.9864340   6.3692320  27.8902620
  31.3573170   5.5859640  27.4838590  31.6266270   7.0581420  27.7119920
  27.9698100   7.7528900  33.3032940  27.1557940   8.1826060  33.5658730
  28.3772300   8.3647310  32.6901990  30.0323540   5.8076590  20.2033210
  30.3072380   6.7155470  20.0752430  29.8434280   5.7439120  21.1395200
  29.9288880   3.7445580  25.1962640  29.5532480   2.9773510  24.7643930
  29.1992000   4.1268280  25.6837570  14.5184640   4.4232720  31.8171690
  14.8857680   4.3360120  32.6967710  13.9495460   3.6599270  31.7178550
  29.3188500   2.8917100  34.8302160  29.0874590   2.6629850  33.9300110
  29.5793050   3.8116650  34.7847050  29.2039840   1.9703070  28.4969880
  29.7277320   1.4765720  27.8660050  29.7899260   2.1053430  29.2417450
  29.3829560   2.0542940  32.0189430  28.4332270   2.0206480  32.1334420
  29.5642570   2.9643050  31.7839200  28.0274150  12.5047500  26.8301210
  28.6233220  12.1832070  26.1535630  28.2852300  12.0319320  27.6214480
  15.9336720   8.9365410  36.9791840  15.8906350   8.5658320  37.8606300
  16.0647730   9.8742980  37.1193660  19.6342750  10.4925000  32.5801560
  19.3934110  10.7599560  31.6932080  20.5745390  10.6630730  32.6352420
  30.8946910  12.5119380  33.3812200  30.4005190  12.9088250  32.6639330
  30.2860200  11.8868590  33.7749480  15.7724750  11.8827660  34.0989620
  15.1785070  11.7512360  34.8379660  15.7648590  11.0465800  33.6331720
  28.5786360  13.1542800  30.6598940  28.1189330  13.9058610  30.2856960
  27.9498820  12.4349270  30.6013740  15.4036980   9.2486040  33.0497660
  14.6771040   8.6291330  32.9823610  15.4646130   9.6426650  32.1795740
  19.0082080  11.4631040  29.8347070  19.5247100  10.8518400  29.3095330
  19.6579460  11.9659820  30.3258080  21.7477580  12.3539530  30.6616050
  22.0355390  12.0993830  29.7849060  22.2600800  11.8016890  31.2521620
  13.6866980  12.5660430  26.2594420  13.5189020  11.9331110  26.9576310
  12.8201490  12.7719830  25.9088610  15.2929680  11.2593660  23.7044560
  14.7677300  11.6401690  23.0006520  15.2174260  11.8844430  24.4254270
  21.8149940  13.2755630  38.0284250  22.7417250  13.0399900  38.0720210
  21.8000370  14.1027630  37.5470280  30.0495000  12.8181200  25.0258500
  30.2247190  12.1318940  24.3819420  29.3516570  13.3428250  24.6335170
  17.8922650  13.2076040  22.5793810  18.6241470  12.9235320  22.0317700
  18.1516320  12.9689320  23.4693190  17.0537440   9.3240770  22.5840140
  16.4246320   9.7925870  23.1325970  17.1685270   8.4789990  23.0186330
  28.3827500  12.5025490  37.8525290  29.1752820  12.0074720  37.6451250
  28.6760650  13.1815630  38.4600900  24.5087160   3.3746430   8.7341340
  24.4281210   2.4601040   8.4633050  24.0951580   3.8713500   8.0281050
  22.6405200   5.1525450  10.6150610  21.8647300   4.6725890  10.9049180
  23.2918130   4.4731100  10.4406770  16.6571030   5.4645260  11.4926370
  15.8255910   5.2093970  11.8922880  17.2652010   5.5356030  12.2284290
  26.6612630   9.5585640   9.3949740  26.1994160   8.7872880   9.7236910
  27.4738180   9.5851710   9.9002190  16.6372290   9.4985350  11.6884390
  16.9400330   8.6083090  11.5094610  17.3815880  10.0555570  11.4606640
  13.0295990   3.0252800  11.1608460  13.6012100   2.2575000  11.1612100
  13.0297530   3.3241560  10.2515070  22.8875940  11.8443650   9.0153730
  22.2687380  12.3001150   8.4448170  23.7427720  11.9995110   8.6143430
  22.0814190   7.8282640  10.6220770  22.0122470   6.8872580  10.4609900
  22.8434050   7.9184050  11.1943340  23.7539290   6.7282890   6.4085640
  23.1356560   7.1932340   5.8448360  24.2662540   7.4210370   6.8255150
  18.6171050   6.2558760  13.0869240  18.2840430   6.8827680  13.7290310
  18.7937730   6.7820640  12.3070910  17.8290150   8.2239560  14.9018420
  18.4464150   8.8990640  14.6202870  16.9683270   8.6327540  14.8105920
  13.1222490   7.4139420   3.7825270  12.7450470   7.9026520   3.0510170
  13.3795560   8.0864700   4.4131800  28.7467740   9.6878970  12.8173060
  28.0631260  10.3578080  12.8089730  29.2862030   9.8859620  12.0517920
  26.2826480  11.5323100  11.5318240  26.2953640  11.1285390  10.6640500
  25.7301700  12.3070390  11.4279670  27.5771900   8.2539320   6.6208410
  27.4668230   7.3113650   6.7457830  27.5740150   8.6154960   7.5071170
  25.6811920   6.4352940  12.8600850  26.0980710   6.2213050  12.0254310
  26.4051740   6.6925730  13.4309470  23.1192180   3.8804640   5.9770900
  22.1921460   3.8142020   6.2059370  23.2717000   4.8184770   5.8626140
  29.6274020   4.8340160  12.9517090  28.7992650   4.9033250  12.4767220
  30.2224500   5.4194470  12.4832920  27.1489470   5.4424940   6.4806150
  26.5301890   5.1044490   5.8332450  27.1313920   4.7984700   7.1885340
  18.7248820   4.4069380   8.7590630  18.3205820   3.6946630   8.2636530
  18.8111940   4.0622620   9.6478670  19.1930520   8.0936940  10.9229840
  18.8958810   7.4882410  10.2437620  20.1430340   8.1314250  10.8119200
  27.2816130  11.6668810  14.5852940  26.8046690  12.4741000  14.3925550
  26.5977920  11.0147140  14.7379150  18.2848950   7.8318630  17.5737640
  17.3877480   8.0558600  17.8211040  18.3101820   7.9553570  16.6249040
  25.3254170   4.6811750   3.4878900  25.7647450   3.8434180   3.3416720
  26.0382590   5.3141150   3.5743040  17.1120170   4.7031950  16.1495010
  16.9727940   5.5754750  16.5182410  16.2301530   4.3604760  16.0042950
  23.4349550   9.6207820   7.4560140  23.8745460  10.3632150   7.0415530
  23.3736440   9.8634390   8.3799100  18.9100520  10.6453650  18.3580160
  18.8815950  11.0496600  17.4908590  18.7465490   9.7164010  18.1951760
  15.4253450   3.3014360   6.2597280  15.3051050   4.0276450   5.6478550
  15.1154340   2.5317270   5.7825190  30.8615340  11.4280750  19.6544330
  31.3375060  11.9063640  20.3333410  31.4822500  11.3598240  18.9289830
  13.0638820   6.4729500  12.0665920  13.1419240   6.6078270  11.1221640
  13.6780500   5.7645390  12.2594040  14.3086450   8.1729690   8.4772100
  13.9014530   8.3144280   7.6225700  15.1999460   7.8889850   8.2743310
  30.2648590   8.6193600  16.8144340  30.3911650   8.3805480  15.8961520
  30.3069970   7.7878140  17.2866420  24.1265330  12.3221600  15.3839150
  24.6410000  12.2329610  16.1861580  23.2834410  12.6681300  15.6767060
  26.1019730  12.6076940   4.8123150  25.9420870  12.3179880   5.7104980
  25.9366440  11.8317070   4.2768380  18.5808110  12.3875470   6.5894770
  18.4050590  11.4711010   6.3762570  17.7263850  12.7462760   6.8292570
  25.8045860  10.1164500   3.3721150  25.1111020  10.1141790   2.7123430
  26.5468720   9.6923820   2.9415320  25.3695790  11.7427210   7.4469640
  25.8252740  10.9616590   7.7608260  25.7088310  12.4534030   7.9910820
  13.1198340   7.5143670  14.6060380  13.2829380   7.0449030  13.7879750
  13.5850790   7.0067230  15.2709220  24.2741140   2.2328650  18.4751720
  24.5994550   1.3992400  18.1353950  25.0621470   2.7557170  18.6230050
  17.6831330   1.7683000   7.3702200  17.4572250   1.5520170   8.2748820
  16.9023860   2.2011460   7.0248170  24.9129090   1.7746370   5.9692850
  24.3137980   2.4982170   5.7856470  25.4608700   1.7123150   5.1869300
  20.1230540   2.6668580  18.0362470  20.0274140   1.7263310  17.8862870
  20.9662520   2.8883650  17.6410540  24.1049100   3.0015660  12.0946910
  23.3730220   3.5102470  12.4437010  23.7073440   2.1845640  11.7935690
  19.6168140   2.9883080   2.8889460  19.0485040   2.5401330   2.2625370
  20.3257140   3.3475860   2.3554610  14.6937320   6.8895100  16.7656190
  14.3092110   6.2488770  17.3639150  15.0049510   7.5931220  17.3350920
  20.8434460   3.7371640  12.2464810  21.2104590   3.2630210  12.9926150
  20.6539520   4.6113210  12.5873150  18.6333830   2.7780280  14.5649020
  18.3290900   3.6572260  14.7899380  19.5880290   2.8380070  14.6006460
  17.1615620   6.9841270   5.1615870  16.3877880   6.4438890   5.0014590
  17.8910250   6.4647880   4.8233630  27.9203600   5.9806630  10.9542260
  28.6402720   6.4761920  10.5638370  27.7185420   5.3024520  10.3096130
  23.3022400   6.0515690  16.8411260  23.2359710   5.1311360  16.5868850
  22.6727540   6.1491130  17.5555900  17.2053020   6.6521650   8.7994680
  17.7231690   5.8489910   8.7451570  16.7537040   6.5900790   9.6411510
  22.0922520   7.9187930   4.0721980  22.4338220   8.6630160   3.5765300
  21.2635230   8.2319050   4.4346810  14.6897560   3.6183020  15.7120380
  14.3312500   4.2836870  16.2993720  14.3952120   2.7866570  16.0833000
  17.8910680   4.0767260  18.5959930  17.5910820   4.2224440  17.6987750
  18.6621920   3.5172550  18.5033320  23.2339130   8.8736260  16.5915060
  23.2483670   7.9417220  16.3733970  22.5264230   8.9596020  17.2304830
  28.3676200   3.0576080   2.8613670  28.2839920   3.4890300   2.0110110
  29.0870390   3.5174430   3.2940490  29.4450340   5.5143600  15.9383640
  28.7198530   6.1072380  15.7413030  29.9725800   5.5067140  15.1397010
  29.3963450   9.9118340   5.5895800  28.7539610   9.2573960   5.8639520
  29.0094110  10.3173430   4.8136470  24.9749930   7.2403770   9.4367490
  25.3273750   6.6431900   8.7768860  24.0912260   6.9148000   9.6075740
  21.0613210   8.0001460   6.8437900  21.7484340   8.5470670   7.2245490
  20.2745630   8.5442190   6.8787510  13.2005610   3.6174280   2.3354980
  14.0700460   3.8999080   2.6190900  12.7095930   4.4310150   2.2203790
  20.3640420   5.0047490   6.4563260  20.8203200   5.8152740   6.6823450
  20.0128630   4.6870630   7.2881750  22.6673030  10.5153830  13.6855560
  23.3115250  10.7213210  14.3628980  23.0302470   9.7542230  13.2326410
  23.9405110   8.5186180  12.4033010  24.5827340   7.8179340  12.5165180
  24.4654460   9.2984620  12.2229900  25.7142730   9.3181080  15.6069070
  26.0498970   9.9047770  16.2846990  24.7943070   9.1873790  15.8366860
  13.5676860  12.8301660   2.9016610  13.9274500  13.4291000   2.2473880
  13.4269200  13.3761550   3.6751640  27.3677080   6.7206740   3.7886310
  27.0798780   7.1819430   4.5764190  28.1629250   6.2604510   4.0570530
  13.5518720  11.0956520  17.3759010  13.6609840  10.1551260  17.2354400
  12.8999280  11.3611270  16.7272740  21.5431310   9.3672410  18.7757130
  21.2228180   8.6481650  19.3202820  20.8689670  10.0427480  18.8493190
  19.5845480  10.2132860   3.7190280  19.5755580  10.9462550   3.1034790
  18.6643840   9.9664440   3.8117240  15.1852120   5.4347750   4.4637040
  14.5780070   6.1746650   4.4732340  15.6601470   5.5247110   3.6375240
  22.5705080  10.2761100   2.3815470  22.6717060  10.0725090   1.4517450
  21.6706820  10.0219380   2.5863250  21.2123190  12.7947420   7.0763140
  21.4664690  12.7568810   6.1542510  20.2635670  12.6680750   7.0691390
  27.2175770   3.7139300   8.6521650  26.2765910   3.7289530   8.8269340
  27.5319840   2.9275260   9.0981950  17.1957410   5.3958900   2.2125610
  17.9620680   5.2840260   2.7751040  17.2732100   4.6996870   1.5602380
  15.8904170   2.8283970   2.8958500  15.9707760   1.8811480   3.0075900
  16.7823920   3.1590850   3.0019160  29.2201350  10.8848150  10.3275910
  29.3448770  11.7079320  10.7999720  30.0866910  10.6738880   9.9800060
  16.6918880  12.9779360   9.9993040  17.4281360  12.4294820  10.2701610
  17.0759800  13.8435370   9.8599030  13.5764360   9.0452930   5.8734550
  12.6504140   9.2874070   5.8639960  14.0420790   9.8727190   5.7519300
  15.6977160  12.1625430  19.1878620  16.4989890  12.4837480  19.6014020
  15.1828980  11.8021010  19.9098530  24.5341790   8.2705300  19.1354030
  23.9279950   8.2936900  18.3949780  24.2295900   7.5388340  19.6721280
  25.9642160  11.9985590  17.7463440  26.9163910  11.9143610  17.6963680
  25.8170380  12.6627300  18.4197230  28.8551360  11.3779800   3.2455350
  28.5692870  10.9644940   2.4309530  28.6570910  12.3067510   3.1255870
  13.4174970   4.6498890  18.1314670  13.9213990   4.0706170  18.7030900
  12.6782390   4.9339120  18.6691040  20.4712910   6.0569880  17.6650190
  19.7058580   6.6254880  17.5804860  20.6528870   5.7646090  16.7718420
  23.5601320   6.4333110   2.2902950  23.0111420   6.8802410   2.9345690
  24.1820580   5.9282360   2.8140620  27.6136260   7.7875210  18.2225210
  28.3545730   8.1250970  17.7192670  26.8508940   7.9567270  17.6694980
  15.4498050   2.7928480  19.0264740  15.4903390   2.4942350  19.9349970
  16.3043550   3.1936090  18.8672260  19.2276440   5.3924030   4.1868250
  19.6492860   5.2263900   5.0299640  19.3527280   4.5824260   3.6923390
  26.2881920   5.8390040  16.7580420  26.7022940   5.9935120  17.6070840
  25.3532920   5.9645260  16.9206200  26.7604090   3.1786200  18.7619570
  27.3424860   2.4238520  18.6740050  26.9365860   3.7093640  17.9851050
  21.0497150   5.7910520  14.7276350  21.4685260   6.6343250  14.5552590
  20.1305780   5.9282560  14.4983130  23.3861050   3.5226700  16.1114190
  23.5057260   2.9267840  16.8509030  24.2455050   3.5596390  15.6915490
  25.7248950   4.0763890  14.6876700  25.1984170   4.6006510  14.0841840
  26.0680290   4.7091280  15.3186430  18.9004570  12.0963530  15.8434080
  18.3625660  12.8209590  15.5242780  19.1538530  11.6193870  15.0531420
  21.7566780  13.3314740  16.1020730  21.6825480  14.2349880  16.4093100
  20.8545620  13.0126640  16.0742800  22.3052110  12.4973250   3.7247090
  23.2002900  12.8358220   3.7465850  22.3369740  11.7752660   3.0971370
  15.9448270   7.8700300   1.9534090  16.3823140   8.4129970   2.6091670
  16.4296000   7.0447250   1.9630430  13.1594070  10.6589330   9.4054350
  13.4897080   9.7910390   9.1732990  13.5885070  10.8647850  10.2359310
  17.7555990   8.9898340   7.0656320  17.4551530   8.8663310   7.9660230
  17.6493480   8.1306930   6.6572050  13.6484280  11.5259920  12.1435980
  13.2115270  11.7060720  12.9760130  14.2161960  12.2834540  12.0017700
  29.2846460  11.0276920  16.4313290  28.6848450  11.0869480  15.6877210
  29.4140360  10.0881900  16.5610140  30.5247910   8.7694740   1.7683000
  29.6940870   8.8371390   2.2390230  30.7019740   9.6598860   1.4649860
  29.9804370   5.5142220   4.2717200  30.7423280   6.0838870   4.3776890
  29.9958740   4.9469420   5.0425510  13.4808710   4.0380150   8.5024860
  12.8257550   3.7691790   7.8584560  14.3186660   3.9284630   8.0526840
  30.9864340   6.3692320   9.1159130  31.3573170   5.5859640   8.7095100
  31.6266270   7.0581420   8.9376430  27.9698100   7.7528900  14.5289450
  27.1557940   8.1826060  14.7915240  28.3772300   8.3647310  13.9158500
  29.9288880   3.7445580   6.4219150  29.5532480   2.9773510   5.9900440
  29.1992000   4.1268280   6.9094080  14.5184640   4.4232720  13.0428200
  14.8857680   4.3360120  13.9224220  13.9495460   3.6599270  12.9435060
  29.3188500   2.8917100  16.0558670  29.0874590   2.6629850  15.1556620
  29.5793050   3.8116650  16.0103560  29.2039840   1.9703070   9.7226390
  29.7277320   1.4765720   9.0916560  29.7899260   2.1053430  10.4673960
  29.3829560   2.0542940  13.2445940  28.4332270   2.0206480  13.3590930
  29.5642570   2.9643050  13.0095710  28.0274150  12.5047500   8.0557720
  28.6233220  12.1832070   7.3792140  28.2852300  12.0319320   8.8470990
  15.9336720   8.9365410  18.2048350  15.8906350   8.5658320  19.0862810
  16.0647730   9.8742980  18.3450170  19.6342750  10.4925000  13.8058070
  19.3934110  10.7599560  12.9188590  20.5745390  10.6630730  13.8608930
  30.8946910  12.5119380  14.6068710  30.4005190  12.9088250  13.8895840
  30.2860200  11.8868590  15.0005990  15.7724750  11.8827660  15.3246130
  15.1785070  11.7512360  16.0636170  15.7648590  11.0465800  14.8588230
  28.5786360  13.1542800  11.8855450  28.1189330  13.9058610  11.5113470
  27.9498820  12.4349270  11.8270250  15.4036980   9.2486040  14.2754170
  14.6771040   8.6291330  14.2080120  15.4646130   9.6426650  13.4052250
  19.0082080  11.4631040  11.0603580  19.5247100  10.8518400  10.5351840
  19.6579460  11.9659820  11.5514590  21.7477580  12.3539530  11.8872560
  22.0355390  12.0993830  11.0105570  22.2600800  11.8016890  12.4778130
  13.6866980  12.5660430   7.4850930  13.5189020  11.9331110   8.1832820
  12.8201490  12.7719830   7.1345120  15.2929680  11.2593660   4.9301070
  14.7677300  11.6401690   4.2263030  15.2174260  11.8844430   5.6510780
  21.8149940  13.2755630  19.2540760  22.7417250  13.0399900  19.2976720
  21.8000370  14.1027630  18.7726790  30.0495000  12.8181200   6.2515010
  30.2247190  12.1318940   5.6075930  29.3516570  13.3428250   5.8591680
  17.8922650  13.2076040   3.8050320  18.6241470  12.9235320   3.2574210
  18.1516320  12.9689320   4.6949700  17.0537440   9.3240770   3.8096650
  16.4246320   9.7925870   4.3582480  17.1685270   8.4789990   4.2442840
  28.3827500  12.5025490  19.0781800  29.1752820  12.0074720  18.8707760
  28.6760650  13.1815630  19.6857410   5.7343670  59.6976900  46.2828320
   5.6537720  58.7831510  46.0120030   5.3208090  60.1943970  45.5768030
   3.8661710  61.4755920  48.1637590   3.0903810  60.9956360  48.4536160
   4.5174640  60.7961570  47.9893750   4.3375870  56.9583490  48.3976680
   4.7140690  56.0855370  48.2850350   4.2395380  57.2942190  47.5067120
   8.1199990  54.4533930  45.3305020   8.9409610  53.9630500  45.3730500
   8.1534070  55.0431590  46.0836860  12.4099540  56.4700680  51.8948650
  11.7051710  56.8582390  51.3763760  12.6757460  57.1650970  52.4969580
   8.3561470  56.3934310  48.1032560   7.6517040  56.6819200  48.6835670
   8.7173630  57.2034420  47.7432120  11.4248390  55.8389100  48.4941770
  10.4773300  55.8728080  48.6257200  11.7498380  56.6528050  48.8791130
   6.9068430  62.7583410  50.4087830   7.3237220  62.5443520  49.5741290
   7.6308250  63.0156200  50.9796450   4.3448690  60.2035110  43.5257880
   3.4177970  60.1372490  43.7546350   4.4973510  61.1415240  43.4113120
   4.3317770  56.4752110  40.5225040   3.3921440  56.6366070  40.6077500
   4.6501030  57.1937790  39.9761030  10.8530530  61.1570630  50.5004070
  10.0249160  61.2263720  50.0254200  11.4481010  61.7424940  50.0319900
   8.3745980  61.7655410  44.0293130   7.7558400  61.4274960  43.3819430
   8.3570430  61.1215170  44.7372320   7.8172540  57.9439950  51.4458940
   7.4043720  58.7693660  51.6998930   7.0848490  57.3584990  51.2535300
   6.5510680  61.0042220  41.0365880   6.9903960  60.1664650  40.8903700
   7.2639100  61.6371620  41.1230020  10.1327820  52.2585030  39.3506920
   9.8200480  52.3511860  40.2505990  10.8940290  52.8366060  39.3004350
  11.3429110  56.9956530  55.3281060  10.7273380  57.5036200  54.7996520
  11.0225530  56.0954860  55.2707000   3.4043430  55.8348420  52.7943250
   2.9422800  56.0431440  53.6063190   3.0021540  55.0207770  52.4913920
   8.4047940  57.0557370  53.9239910   7.5541530  56.7563120  54.2448980
   8.2449730  57.2999380  53.0123730   5.4997650  58.5559120  56.0238700
   5.8251060  57.7222870  55.6840930   6.2877980  59.0787640  56.1717030
   6.1385600  58.0976840  43.5179830   5.5394490  58.8212640  43.3343450
   6.6865210  58.0353620  42.7356280   4.7450470  56.7340380  45.5483110
   5.1380040  57.0512580  44.7351800   5.1067320  55.8552260  45.6627630
   5.3305610  59.3246130  49.6433890   4.5986730  59.8332940  49.9923990
   4.9329950  58.5076110  49.3422670   1.7683000  56.0000330  48.0486380
   1.7719060  55.5590280  47.1990920   2.6634120  56.3217660  48.1558200
   5.7931520  54.7779810  49.0556830   5.8104260  55.2288460  49.8998680
   5.5447100  53.8785450  49.2690270   9.2202270  52.1911990  54.8943210
   9.5448040  51.4601650  55.4201190   9.2558780  51.8725630  53.9924200
   2.0690970  60.0602110  49.7951790   2.4361100  59.5860680  50.5413130
   1.8796030  60.9343680  50.1360130   9.1460110  62.3037100  48.5029240
   9.8659230  62.7992390  48.1125350   8.9441930  61.6254990  47.8583110
   4.6070050  53.6975060  42.6458630   3.7934660  53.1988230  42.5703940
   4.4132000  54.5373310  42.2294980   4.5278910  62.3746160  54.3898240
   4.4616220  61.4541830  54.1355830   3.8984050  62.4721600  55.1042880
   7.3218440  58.0694710  40.9420790   8.2098060  58.3811940  40.7672130
   7.2923530  57.1966960  40.5501370   9.5932710  59.3806550  40.4100650
   9.5096430  59.8120770  39.5597090  10.3126900  59.8404900  40.8427470
  10.6706850  61.8374070  53.4870620   9.9455040  62.4302850  53.2900010
  11.1982310  61.8297610  52.6883990   5.9841420  55.9229040  51.6880910
   6.3522240  55.1024250  52.0160480   5.1239620  55.9830930  52.1036560
   9.3503450  54.8785980  42.4968470   8.7216610  54.9831650  41.7826700
   8.8555370  55.0982760  43.2862350   2.9443410  58.5768630  51.9118880
   3.4428660  59.0514450  52.5770730   3.0866360  57.6532150  52.1188910
   5.3502910  53.8822590  45.3522140   5.2270690  53.9008720  44.4031650
   6.2987470  53.9301530  45.4720540  10.1510270  54.7936590  52.7547270
   9.6483870  55.5341990  53.0941080  10.9666930  55.1820590  52.4384060
   8.4432280  60.0369770  46.2008630   7.5022420  60.0520000  46.3756320
   8.7576350  59.2505730  46.6468930   4.7857830  62.7563580  39.8389930
   4.2367930  63.2032880  40.4832670   5.4077090  62.2512830  40.3627600
   2.9660590  60.7392110  38.9832330   3.4866250  60.0241130  38.6173480
   3.6128990  61.3777980  39.2832840   7.5138430  62.1620510  54.3067400
   7.9279450  62.3165590  55.1557820   6.5789430  62.2875730  54.4693180
   7.9860600  59.5016670  56.3106550   8.5681370  58.7468990  56.2227030
   8.1622370  60.0324110  55.5338030   4.6117560  59.8457170  53.6601170
   4.7313770  59.2498310  54.3996010   5.4711560  59.8826860  53.2402470
   6.9505460  60.3994360  52.2363680   6.4240680  60.9236980  51.6328820
   7.2936800  61.0321750  52.8673410   6.1979760  56.0044330  55.1510010
   5.5095280  55.3425870  55.0860000   6.9185780  55.5582600  55.5958470
   6.8280160  52.5995960  41.2100270   7.1082450  51.7563860  41.5659690
   6.0545890  52.8319070  41.7239020  11.2060880  61.8372690  41.8204180
  11.9679790  62.4069340  41.9263870  11.2215250  61.2699890  42.5912490
  11.2580050  62.1307060  38.9776700  11.5328890  63.0385940  38.8495920
  11.0690790  62.0669590  39.9138690   7.6555660  55.1551910  40.2730330
   8.0740540  54.9682890  39.4326990   7.3491720  54.3030960  40.5833260
  11.1545390  60.0676050  43.9706130  10.7788990  59.3003980  43.5387420
  10.4248510  60.4498750  44.4581060  10.5445010  59.2147570  53.6045650
  10.3131100  58.9860320  52.7043600  10.8049560  60.1347120  53.5590540
   8.9833080  54.4404000  56.3825350   9.8603260  54.4487400  56.7659350
   8.9953920  53.7034840  55.7717700  10.4296350  58.2933540  47.2713370
  10.9533830  57.7996190  46.6403540  11.0155770  58.4283900  48.0160940
  10.6086070  58.3773410  50.7932920   9.6588780  58.3436950  50.9077910
  10.7899080  59.2873520  50.5582690   9.9196320  57.5506890  43.2105780
  10.4155440  57.3177760  43.9954660   9.7212390  56.7118730  42.7943420
  11.3483480  56.1867840  45.7443460  11.2382760  56.0323880  46.6825730
  12.1091070  55.6588780  45.5018870   9.6949200  52.1261970  52.2026460
  10.3321420  52.7396110  52.5685650   9.8424090  52.1622630  51.2575690
  12.2373750  54.0175760  38.9849600  13.1623060  53.8856940  38.7767890
  12.2149540  54.0968580  39.9386050  12.3112240  54.7886420  41.6106310
  11.5163740  54.7231540  42.1399220  12.5155520  55.7237060  41.5991660
   3.0653680  53.2788160  55.1101560   3.0042570  53.8709990  55.8596970
   4.0054060  53.1714120  54.9651820   5.7028240  52.9358220  54.7493850
   6.3168650  53.2537510  54.0874930   6.2477800  52.4506810  55.3689710
   6.4436280  51.4990360  51.0763140   5.5696120  51.8325470  50.8736070
   6.3347030  51.0263540  51.9015010   7.3508260  53.7061230  52.4604860
   7.0221620  52.8912990  52.0806590   8.2990560  53.6631040  52.3370550
   4.1911100  52.4160200  50.0156050   3.4082890  52.8905700  50.2952810
   3.8974030  51.5115030  49.9069230   8.7432170  53.1183300  48.0605140
   9.1840260  53.0628400  47.2126740   8.4739760  54.0341310  48.1315320
  10.6070740  52.7498540  46.0713960  10.5459140  51.8059760  45.9244980
  11.3862770  52.8578630  46.6167420   6.5790300  51.4989400  46.7655150
   7.1819670  52.0709610  47.2403670   5.8383290  52.0628840  46.5429050
   9.7224900  51.9010960  42.0395430   9.9175530  52.7994410  42.3062860
   8.9354770  51.6698040  42.5328380   5.7343670  59.6976900  27.5084830
   5.6537720  58.7831510  27.2376540   5.3208090  60.1943970  26.8024540
   3.8661710  61.4755920  29.3894100   3.0903810  60.9956360  29.6792670
   4.5174640  60.7961570  29.2150260   4.3375870  56.9583490  29.6233190
   4.7140690  56.0855370  29.5106860   4.2395380  57.2942190  28.7323630
   8.1199990  54.4533930  26.5561530   8.9409610  53.9630500  26.5987010
   8.1534070  55.0431590  27.3093370  12.4099540  56.4700680  33.1205160
  11.7051710  56.8582390  32.6020270  12.6757460  57.1650970  33.7226090
   8.3561470  56.3934310  29.3289070   7.6517040  56.6819200  29.9092180
   8.7173630  57.2034420  28.9688630  11.4248390  55.8389100  29.7198280
  10.4773300  55.8728080  29.8513710  11.7498380  56.6528050  30.1047640
   6.9068430  62.7583410  31.6344340   7.3237220  62.5443520  30.7997800
   7.6308250  63.0156200  32.2052960   4.3448690  60.2035110  24.7514390
   3.4177970  60.1372490  24.9802860   4.4973510  61.1415240  24.6369630
   4.3317770  56.4752110  21.7481550   3.3921440  56.6366070  21.8334010
   4.6501030  57.1937790  21.2017540  10.8530530  61.1570630  31.7260580
  10.0249160  61.2263720  31.2510710  11.4481010  61.7424940  31.2576410
   8.3745980  61.7655410  25.2549640   7.7558400  61.4274960  24.6075940
   8.3570430  61.1215170  25.9628830   7.8172540  57.9439950  32.6715450
   7.4043720  58.7693660  32.9255440   7.0848490  57.3584990  32.4791810
   6.5510680  61.0042220  22.2622390   6.9903960  60.1664650  22.1160210
   7.2639100  61.6371620  22.3486530  10.1327820  52.2585030  20.5763430
   9.8200480  52.3511860  21.4762500  10.8940290  52.8366060  20.5260860
  11.3429110  56.9956530  36.5537570  10.7273380  57.5036200  36.0253030
  11.0225530  56.0954860  36.4963510   3.4043430  55.8348420  34.0199760
   2.9422800  56.0431440  34.8319700   3.0021540  55.0207770  33.7170430
   8.4047940  57.0557370  35.1496420   7.5541530  56.7563120  35.4705490
   8.2449730  57.2999380  34.2380240   5.4997650  58.5559120  37.2495210
   5.8251060  57.7222870  36.9097440   6.2877980  59.0787640  37.3973540
   6.1385600  58.0976840  24.7436340   5.5394490  58.8212640  24.5599960
   6.6865210  58.0353620  23.9612790   4.7450470  56.7340380  26.7739620
   5.1380040  57.0512580  25.9608310   5.1067320  55.8552260  26.8884140
   3.0542640  55.4847690  38.0336480   2.3640960  55.2919890  38.6682570
   3.7974940  55.7682330  38.5660780   5.3305610  59.3246130  30.8690400
   4.5986730  59.8332940  31.2180500   4.9329950  58.5076110  30.5679180
   1.7683000  56.0000330  29.2742890   1.7719060  55.5590280  28.4247430
   2.6634120  56.3217660  29.3814710   5.7931520  54.7779810  30.2813340
   5.8104260  55.2288460  31.1255190   5.5447100  53.8785450  30.4946780
   9.2202270  52.1911990  36.1199720   9.5448040  51.4601650  36.6457700
   9.2558780  51.8725630  35.2180710   2.0690970  60.0602110  31.0208300
   2.4361100  59.5860680  31.7669640   1.8796030  60.9343680  31.3616640
   9.1460110  62.3037100  29.7285750   9.8659230  62.7992390  29.3381860
   8.9441930  61.6254990  29.0839620   4.6070050  53.6975060  23.8715140
   3.7934660  53.1988230  23.7960450   4.4132000  54.5373310  23.4551490
   4.5278910  62.3746160  35.6154750   4.4616220  61.4541830  35.3612340
   3.8984050  62.4721600  36.3299390   7.3218440  58.0694710  22.1677300
   8.2098060  58.3811940  21.9928640   7.2923530  57.1966960  21.7757880
   9.5932710  59.3806550  21.6357160   9.5096430  59.8120770  20.7853600
  10.3126900  59.8404900  22.0683980  10.6706850  61.8374070  34.7127130
   9.9455040  62.4302850  34.5156520  11.1982310  61.8297610  33.9140500
   5.9841420  55.9229040  32.9137420   6.3522240  55.1024250  33.2416990
   5.1239620  55.9830930  33.3293070   9.3503450  54.8785980  23.7224980
   8.7216610  54.9831650  23.0083210   8.8555370  55.0982760  24.5118860
   2.9443410  58.5768630  33.1375390   3.4428660  59.0514450  33.8027240
   3.0866360  57.6532150  33.3445420   5.3502910  53.8822590  26.5778650
   5.2270690  53.9008720  25.6288160   6.2987470  53.9301530  26.6977050
  10.1510270  54.7936590  33.9803780   9.6483870  55.5341990  34.3197590
  10.9666930  55.1820590  33.6640570   8.4432280  60.0369770  27.4265140
   7.5022420  60.0520000  27.6012830   8.7576350  59.2505730  27.8725440
   4.7857830  62.7563580  21.0646440   4.2367930  63.2032880  21.7089180
   5.4077090  62.2512830  21.5884110   2.9660590  60.7392110  20.2088840
   3.4866250  60.0241130  19.8429990   3.6128990  61.3777980  20.5089350
   7.5138430  62.1620510  35.5323910   7.9279450  62.3165590  36.3814330
   6.5789430  62.2875730  35.6949690   7.9860600  59.5016670  37.5363060
   8.5681370  58.7468990  37.4483540   8.1622370  60.0324110  36.7594540
   4.6117560  59.8457170  34.8857680   4.7313770  59.2498310  35.6252520
   5.4711560  59.8826860  34.4658980   6.9505460  60.3994360  33.4620190
   6.4240680  60.9236980  32.8585330   7.2936800  61.0321750  34.0929920
   6.1979760  56.0044330  36.3766520   5.5095280  55.3425870  36.3116510
   6.9185780  55.5582600  36.8214980   6.8280160  52.5995960  22.4356780
   7.1082450  51.7563860  22.7916200   6.0545890  52.8319070  22.9495530
  11.2060880  61.8372690  23.0460690  11.9679790  62.4069340  23.1520380
  11.2215250  61.2699890  23.8169000  11.2580050  62.1307060  20.2033210
  11.5328890  63.0385940  20.0752430  11.0690790  62.0669590  21.1395200
   7.6555660  55.1551910  21.4986840   8.0740540  54.9682890  20.6583500
   7.3491720  54.3030960  21.8089770  11.1545390  60.0676050  25.1962640
  10.7788990  59.3003980  24.7643930  10.4248510  60.4498750  25.6837570
  10.5445010  59.2147570  34.8302160  10.3131100  58.9860320  33.9300110
  10.8049560  60.1347120  34.7847050   8.9833080  54.4404000  37.6081860
   9.8603260  54.4487400  37.9915860   8.9953920  53.7034840  36.9974210
  10.4296350  58.2933540  28.4969880  10.9533830  57.7996190  27.8660050
  11.0155770  58.4283900  29.2417450  10.6086070  58.3773410  32.0189430
   9.6588780  58.3436950  32.1334420  10.7899080  59.2873520  31.7839200
   9.9196320  57.5506890  24.4362290  10.4155440  57.3177760  25.2211170
   9.7212390  56.7118730  24.0199930  11.3483480  56.1867840  26.9699970
  11.2382760  56.0323880  27.9082240  12.1091070  55.6588780  26.7275380
   9.6949200  52.1261970  33.4282970  10.3321420  52.7396110  33.7942160
   9.8424090  52.1622630  32.4832200  12.2373750  54.0175760  20.2106110
  13.1623060  53.8856940  20.0024400  12.2149540  54.0968580  21.1642560
  12.3112240  54.7886420  22.8362820  11.5163740  54.7231540  23.3655730
  12.5155520  55.7237060  22.8248170   3.0653680  53.2788160  36.3358070
   3.0042570  53.8709990  37.0853480   4.0054060  53.1714120  36.1908330
   5.7028240  52.9358220  35.9750360   6.3168650  53.2537510  35.3131440
   6.2477800  52.4506810  36.5946220   6.4436280  51.4990360  32.3019650
   5.5696120  51.8325470  32.0992580   6.3347030  51.0263540  33.1271520
   7.3508260  53.7061230  33.6861370   7.0221620  52.8912990  33.3063100
   8.2990560  53.6631040  33.5627060   4.1911100  52.4160200  31.2412560
   3.4082890  52.8905700  31.5209320   3.8974030  51.5115030  31.1325740
   8.7432170  53.1183300  29.2861650   9.1840260  53.0628400  28.4383250
   8.4739760  54.0341310  29.3571830  10.6070740  52.7498540  27.2970470
  10.5459140  51.8059760  27.1501490  11.3862770  52.8578630  27.8423930
   6.5790300  51.4989400  27.9911660   7.1819670  52.0709610  28.4660180
   5.8383290  52.0628840  27.7685560   9.7224900  51.9010960  23.2651940
   9.9175530  52.7994410  23.5319370   8.9354770  51.6698040  23.7584890
   6.8285520  51.6784430  38.3706600   6.7150970  51.9979040  39.2658120
   7.6455260  52.0796940  38.0743880   5.7343670  59.6976900   8.7341340
   5.6537720  58.7831510   8.4633050   5.3208090  60.1943970   8.0281050
   3.8661710  61.4755920  10.6150610   3.0903810  60.9956360  10.9049180
   4.5174640  60.7961570  10.4406770   4.3375870  56.9583490  10.8489700
   4.7140690  56.0855370  10.7363370   4.2395380  57.2942190   9.9580140
   8.1199990  54.4533930   7.7818040   8.9409610  53.9630500   7.8243520
   8.1534070  55.0431590   8.5349880  12.4099540  56.4700680  14.3461670
  11.7051710  56.8582390  13.8276780  12.6757460  57.1650970  14.9482600
   8.3561470  56.3934310  10.5545580   7.6517040  56.6819200  11.1348690
   8.7173630  57.2034420  10.1945140  11.4248390  55.8389100  10.9454790
  10.4773300  55.8728080  11.0770220  11.7498380  56.6528050  11.3304150
   6.9068430  62.7583410  12.8600850   7.3237220  62.5443520  12.0254310
   7.6308250  63.0156200  13.4309470   4.3448690  60.2035110   5.9770900
   3.4177970  60.1372490   6.2059370   4.4973510  61.1415240   5.8626140
   4.3317770  56.4752110   2.9738060   3.3921440  56.6366070   3.0590520
   4.6501030  57.1937790   2.4274050  10.8530530  61.1570630  12.9517090
  10.0249160  61.2263720  12.4767220  11.4481010  61.7424940  12.4832920
   8.3745980  61.7655410   6.4806150   7.7558400  61.4274960   5.8332450
   8.3570430  61.1215170   7.1885340   7.8172540  57.9439950  13.8971960
   7.4043720  58.7693660  14.1511950   7.0848490  57.3584990  13.7048320
   6.5510680  61.0042220   3.4878900   6.9903960  60.1664650   3.3416720
   7.2639100  61.6371620   3.5743040  10.1327820  52.2585030   1.8019940
   9.8200480  52.3511860   2.7019010  10.8940290  52.8366060   1.7517370
  11.3429110  56.9956530  17.7794080  10.7273380  57.5036200  17.2509540
  11.0225530  56.0954860  17.7220020   3.4043430  55.8348420  15.2456270
   2.9422800  56.0431440  16.0576210   3.0021540  55.0207770  14.9426940
   8.4047940  57.0557370  16.3752930   7.5541530  56.7563120  16.6962000
   8.2449730  57.2999380  15.4636750   5.4997650  58.5559120  18.4751720
   5.8251060  57.7222870  18.1353950   6.2877980  59.0787640  18.6230050
   6.1385600  58.0976840   5.9692850   5.5394490  58.8212640   5.7856470
   6.6865210  58.0353620   5.1869300   4.7450470  56.7340380   7.9996130
   5.1380040  57.0512580   7.1864820   5.1067320  55.8552260   8.1140650
   3.0542640  55.4847690  19.2592990   2.3640960  55.2919890  19.8939080
   3.7974940  55.7682330  19.7917290   5.3305610  59.3246130  12.0946910
   4.5986730  59.8332940  12.4437010   4.9329950  58.5076110  11.7935690
   1.7683000  56.0000330  10.4999400   1.7719060  55.5590280   9.6503940
   2.6634120  56.3217660  10.6071220   5.7931520  54.7779810  11.5069850
   5.8104260  55.2288460  12.3511700   5.5447100  53.8785450  11.7203290
   9.2202270  52.1911990  17.3456230   9.5448040  51.4601650  17.8714210
   9.2558780  51.8725630  16.4437220   2.0690970  60.0602110  12.2464810
   2.4361100  59.5860680  12.9926150   1.8796030  60.9343680  12.5873150
   9.1460110  62.3037100  10.9542260   9.8659230  62.7992390  10.5638370
   8.9441930  61.6254990  10.3096130   4.6070050  53.6975060   5.0971650
   3.7934660  53.1988230   5.0216960   4.4132000  54.5373310   4.6808000
   4.5278910  62.3746160  16.8411260   4.4616220  61.4541830  16.5868850
   3.8984050  62.4721600  17.5555900   7.3218440  58.0694710   3.3933810
   8.2098060  58.3811940   3.2185150   7.2923530  57.1966960   3.0014390
   9.5932710  59.3806550   2.8613670   9.5096430  59.8120770   2.0110110
  10.3126900  59.8404900   3.2940490  10.6706850  61.8374070  15.9383640
   9.9455040  62.4302850  15.7413030  11.1982310  61.8297610  15.1397010
   5.9841420  55.9229040  14.1393930   6.3522240  55.1024250  14.4673500
   5.1239620  55.9830930  14.5549580   9.3503450  54.8785980   4.9481490
   8.7216610  54.9831650   4.2339720   8.8555370  55.0982760   5.7375370
   2.9443410  58.5768630  14.3631900   3.4428660  59.0514450  15.0283750
   3.0866360  57.6532150  14.5701930   5.3502910  53.8822590   7.8035160
   5.2270690  53.9008720   6.8544670   6.2987470  53.9301530   7.9233560
  10.1510270  54.7936590  15.2060290   9.6483870  55.5341990  15.5454100
  10.9666930  55.1820590  14.8897080   8.4432280  60.0369770   8.6521650
   7.5022420  60.0520000   8.8269340   8.7576350  59.2505730   9.0981950
   4.7857830  62.7563580   2.2902950   4.2367930  63.2032880   2.9345690
   5.4077090  62.2512830   2.8140620   7.5138430  62.1620510  16.7580420
   7.9279450  62.3165590  17.6070840   6.5789430  62.2875730  16.9206200
   7.9860600  59.5016670  18.7619570   8.5681370  58.7468990  18.6740050
   8.1622370  60.0324110  17.9851050   4.6117560  59.8457170  16.1114190
   4.7313770  59.2498310  16.8509030   5.4711560  59.8826860  15.6915490
   6.9505460  60.3994360  14.6876700   6.4240680  60.9236980  14.0841840
   7.2936800  61.0321750  15.3186430   6.1979760  56.0044330  17.6023030
   5.5095280  55.3425870  17.5373020   6.9185780  55.5582600  18.0471490
   6.8280160  52.5995960   3.6613290   7.1082450  51.7563860   4.0172710
   6.0545890  52.8319070   4.1752040  11.2060880  61.8372690   4.2717200
  11.9679790  62.4069340   4.3776890  11.2215250  61.2699890   5.0425510
   7.6555660  55.1551910   2.7243350   8.0740540  54.9682890   1.8840010
   7.3491720  54.3030960   3.0346280  11.1545390  60.0676050   6.4219150
  10.7788990  59.3003980   5.9900440  10.4248510  60.4498750   6.9094080
  10.5445010  59.2147570  16.0558670  10.3131100  58.9860320  15.1556620
  10.8049560  60.1347120  16.0103560   8.9833080  54.4404000  18.8338370
   9.8603260  54.4487400  19.2172370   8.9953920  53.7034840  18.2230720
  10.4296350  58.2933540   9.7226390  10.9533830  57.7996190   9.0916560
  11.0155770  58.4283900  10.4673960  10.6086070  58.3773410  13.2445940
   9.6588780  58.3436950  13.3590930  10.7899080  59.2873520  13.0095710
   9.9196320  57.5506890   5.6618800  10.4155440  57.3177760   6.4467680
   9.7212390  56.7118730   5.2456440  11.3483480  56.1867840   8.1956480
  11.2382760  56.0323880   9.1338750  12.1091070  55.6588780   7.9531890
   9.6949200  52.1261970  14.6539480  10.3321420  52.7396110  15.0198670
   9.8424090  52.1622630  13.7088710  12.3112240  54.7886420   4.0619330
  11.5163740  54.7231540   4.5912240  12.5155520  55.7237060   4.0504680
   3.0653680  53.2788160  17.5614580   3.0042570  53.8709990  18.3109990
   4.0054060  53.1714120  17.4164840   5.7028240  52.9358220  17.2006870
   6.3168650  53.2537510  16.5387950   6.2477800  52.4506810  17.8202730
   6.4436280  51.4990360  13.5276160   5.5696120  51.8325470  13.3249090
   6.3347030  51.0263540  14.3528030   7.3508260  53.7061230  14.9117880
   7.0221620  52.8912990  14.5319610   8.2990560  53.6631040  14.7883570
   4.1911100  52.4160200  12.4669070   3.4082890  52.8905700  12.7465830
   3.8974030  51.5115030  12.3582250   8.7432170  53.1183300  10.5118160
   9.1840260  53.0628400   9.6639760   8.4739760  54.0341310  10.5828340
  10.6070740  52.7498540   8.5226980  10.5459140  51.8059760   8.3758000
  11.3862770  52.8578630   9.0680440   6.5790300  51.4989400   9.2168170
   7.1819670  52.0709610   9.6916690   5.8383290  52.0628840   8.9942070
   9.7224900  51.9010960   4.4908450   9.9175530  52.7994410   4.7575880
   8.9354770  51.6698040   4.9841400   6.8285520  51.6784430  19.5963110
   6.7150970  51.9979040  20.4914630   7.6455260  52.0796940  19.3000390
   5.7343670  40.9233410  46.2828320   5.6537720  40.0088020  46.0120030
   5.3208090  41.4200480  45.5768030   3.8661710  42.7012430  48.1637590
   3.0903810  42.2212870  48.4536160   4.5174640  42.0218080  47.9893750
   7.8869140  47.1072620  46.9436720   7.4250670  46.3359860  47.2723890
   8.6994690  47.1338690  47.4489170   4.1132450  49.3930630  46.5640710
   3.4943890  49.8488130  45.9935150   4.9684230  49.5482090  46.1630410
   3.3070700  45.3769620  48.1707750   3.2378980  44.4359560  48.0096880
   4.0690560  45.4671030  48.7430320   4.3375870  38.1840000  48.3976680
   4.7140690  37.3111880  48.2850350   4.2395380  38.5198700  47.5067120
   8.1199990  35.6790440  45.3305020   8.9409610  35.1887010  45.3730500
   8.1534070  36.2688100  46.0836860  12.4099540  37.6957190  51.8948650
  11.7051710  38.0838900  51.3763760  12.6757460  38.3907480  52.4969580
   4.9795800  44.2769870  43.9572620   4.3613070  44.7419320  43.3935340
   5.4919050  44.9697350  44.3742130   8.3561470  37.6190820  48.1032560
   7.6517040  37.9075710  48.6835670   8.7173630  38.4290930  47.7432120
   9.9724250  47.2365950  50.3660040   9.2887770  47.9065060  50.3576710
  10.5118540  47.4346600  49.6004900  11.4248390  37.0645610  48.4941770
  10.4773300  37.0984590  48.6257200  11.7498380  37.8784560  48.8791130
   7.5082990  49.0810080  49.0805220   7.5210150  48.6772370  48.2127480
   6.9558210  49.8557370  48.9766650   8.8028410  45.8026300  44.1695390
   8.6924740  44.8600630  44.2944810   8.7996660  46.1641940  45.0558150
   6.9068430  43.9839920  50.4087830   7.3237220  43.7700030  49.5741290
   7.6308250  44.2412710  50.9796450   4.3448690  41.4291620  43.5257880
   3.4177970  41.3629000  43.7546350   4.4973510  42.3671750  43.4113120
   4.3317770  37.7008620  40.5225040   3.3921440  37.8622580  40.6077500
   4.6501030  38.4194300  39.9761030  10.8530530  42.3827140  50.5004070
  10.0249160  42.4520230  50.0254200  11.4481010  42.9681450  50.0319900
   8.3745980  42.9911920  44.0293130   7.7558400  42.6531470  43.3819430
   8.3570430  42.3471680  44.7372320   7.8172540  39.1696460  51.4458940
   7.4043720  39.9950170  51.6998930   7.0848490  38.5841500  51.2535300
   8.5072640  49.2155790  52.1339920   8.0303200  50.0227980  51.9412530
   7.8234430  48.5634120  52.2866130   6.5510680  42.2298730  41.0365880
   6.9903960  41.3921160  40.8903700   7.2639100  42.8628130  41.1230020
   4.6606060  47.1694800  45.0047120   5.1001970  47.9119130  44.5902510
   4.5992950  47.4121370  45.9286080  10.1327820  33.4841540  39.3506920
   9.8200480  33.5768370  40.2505990  10.8940290  34.0622570  39.3004350
  11.4905100  46.1680580  54.3631320  11.6168160  45.9292460  53.4448500
  11.5326480  45.3365120  54.8353400   5.3521840  49.8708580  52.9326130
   5.8666510  49.7816590  53.7348560   4.5090920  50.2168280  53.2254040
   7.3276240  50.1563920  42.3610130   7.1677380  49.8666860  43.2591960
   7.1622950  49.3804050  41.8255360   7.0302370  47.6651480  40.9208130
   6.3367530  47.6628770  40.2610410   7.7725230  47.2410800  40.4902300
   6.5952300  49.2914190  44.9956620   7.0509250  48.5103570  45.3095240
   6.9344820  50.0021010  45.5397800  11.3429110  38.2213040  55.3281060
  10.7273380  38.7292710  54.7996520  11.0225530  37.3211370  55.2707000
   3.4043430  37.0604930  52.7943250   2.9422800  37.2687950  53.6063190
   3.0021540  36.2464280  52.4913920   8.4047940  38.2813880  53.9239910
   7.5541530  37.9819630  54.2448980   8.2449730  38.5255890  53.0123730
   5.4997650  39.7815630  56.0238700   5.8251060  38.9479380  55.6840930
   6.2877980  40.3044150  56.1717030   6.1385600  39.3233350  43.5179830
   5.5394490  40.0469150  43.3343450   6.6865210  39.2610130  42.7356280
   4.7450470  37.9596890  45.5483110   5.1380040  38.2769090  44.7351800
   5.1067320  37.0808770  45.6627630   5.3305610  40.5502640  49.6433890
   4.5986730  41.0589450  49.9923990   4.9329950  39.7332620  49.3422670
   1.7683000  37.2256840  48.0486380   1.7719060  36.7846790  47.1990920
   2.6634120  37.5474170  48.1558200   5.7931520  36.0036320  49.0556830
   5.8104260  36.4544970  49.8998680   5.5447100  35.1041960  49.2690270
   9.2202270  33.4168500  54.8943210   9.5448040  32.6858160  55.4201190
   9.2558780  33.0982140  53.9924200   2.0690970  41.2858620  49.7951790
   2.4361100  40.8117190  50.5413130   1.8796030  42.1600190  50.1360130
   9.1460110  43.5293610  48.5029240   9.8659230  44.0248900  48.1125350
   8.9441930  42.8511500  47.8583110   4.6070050  34.9231570  42.6458630
   3.7934660  34.4244740  42.5703940   4.4132000  35.7629820  42.2294980
   4.5278910  43.6002670  54.3898240   4.4616220  42.6798340  54.1355830
   3.8984050  43.6978110  55.1042880   7.3218440  39.2951220  40.9420790
   8.2098060  39.6068450  40.7672130   7.2923530  38.4223470  40.5501370
   3.3179030  45.4674910  41.6208960   3.6594730  46.2117140  41.1252280
   2.4891740  45.7806030  41.9833790   4.4595640  46.4223240  54.1402040
   4.4740180  45.4904200  53.9220950   3.7520740  46.5083000  54.7791810
   9.5932710  40.6063060  40.4100650   9.5096430  41.0377280  39.5597090
  10.3126900  41.0661410  40.8427470  10.6706850  43.0630580  53.4870620
   9.9455040  43.6559360  53.2900010  11.1982310  43.0554120  52.6883990
  10.6219960  47.4605320  43.1382780   9.9796120  46.8060940  43.4126500
  10.2350620  47.8660410  42.3623450   6.2006440  44.7890750  46.9854470
   6.5530260  44.1918880  46.3255840   5.3168770  44.4634980  47.1562720
   3.8929540  48.0640810  51.2342540   4.5371760  48.2700190  51.9115960
   4.2558980  47.3029210  50.7813390   5.1661620  46.0673160  49.9519990
   5.8083850  45.3666320  50.0652160   5.6910970  46.8471600  49.7716880
   9.0117340  46.3521780  39.6759130   8.7854920  45.6352220  40.2683770
   8.6213540  46.1034220  38.8380880   6.9399240  46.8668060  53.1556050
   7.2755480  47.4534750  53.8333970   6.0199580  46.7360770  53.3853840
   8.5933590  44.2693720  41.3373290   8.3055290  44.7306410  42.1251170
   9.3885760  43.8091490  41.6057510   5.9841420  37.1485550  51.6880910
   6.3522240  36.3280760  52.0160480   5.1239620  37.2087440  52.1036560
   9.3503450  36.1042490  42.4968470   8.7216610  36.2088160  41.7826700
   8.8555370  36.3239270  43.2862350   3.7961590  47.8248080  39.9302450
   3.8973570  47.6212070  39.0004430   2.8963330  47.5706360  40.1350230
   2.9443410  39.8025140  51.9118880   3.4428660  40.2770960  52.5770730
   3.0866360  38.8788660  52.1188910   5.3502910  35.1079100  45.3522140
   5.2270690  35.1265230  44.4031650   6.2987470  35.1558040  45.4720540
  10.1510270  36.0193100  52.7547270   9.6483870  36.7598500  53.0941080
  10.9666930  36.4077100  52.4384060   8.4432280  41.2626280  46.2008630
   7.5022420  41.2776510  46.3756320   8.7576350  40.4762240  46.6468930
  10.4457860  48.4335130  47.8762890  10.5705280  49.2566300  48.3486700
  11.3123420  48.2225860  47.5287040   7.1898670  49.5472570  55.2950420
   8.1420420  49.4630590  55.2450660   7.0426890  50.2114280  55.9684210
  10.0807870  48.9266780  40.7942330   9.7949380  48.5131920  39.9796510
   9.8827420  49.8554490  40.6742850   4.7857830  43.9820090  39.8389930
   4.2367930  44.4289390  40.4832670   5.4077090  43.4769340  40.3627600
   8.8392770  45.3362190  55.7712190   9.5802240  45.6737950  55.2679650
   8.0765450  45.5054250  55.2181960   2.9660590  41.9648620  38.9832330
   3.4866250  41.2497640  38.6173480   3.6128990  42.6034490  39.2832840
   7.5138430  43.3877020  54.3067400   7.9279450  43.5422100  55.1557820
   6.5789430  43.5132240  54.4693180   7.9860600  40.7273180  56.3106550
   8.5681370  39.9725500  56.2227030   8.1622370  41.2580620  55.5338030
   4.6117560  41.0713680  53.6601170   4.7313770  40.4754820  54.3996010
   5.4711560  41.1083370  53.2402470   6.9505460  41.6250870  52.2363680
   6.4240680  42.1493490  51.6328820   7.2936800  42.2578260  52.8673410
   6.1979760  37.2300840  55.1510010   5.5095280  36.5682380  55.0860000
   6.9185780  36.7839110  55.5958470   6.8280160  33.8252470  41.2100270
   7.1082450  32.9820370  41.5659690   6.0545890  34.0575580  41.7239020
   2.9823290  50.8801720  53.6507710   2.9081990  51.7836860  53.9580080
   2.0802130  50.5613620  53.6229780   3.5308620  50.0460230  41.2734070
   4.4259410  50.3845200  41.2952830   3.5626250  49.3239640  40.6458350
  10.5102970  48.5763900  53.9800270   9.9104960  48.6356460  53.2364190
  10.6396870  47.6368880  54.1097120  11.7504420  46.3181720  39.3169980
  10.9197380  46.3858370  39.7877210  11.9276250  47.2085840  39.0136840
  11.2060880  43.0629200  41.8204180  11.9679790  43.6325850  41.9263870
  11.2215250  42.4956400  42.5912490  12.2120850  43.9179300  46.6646110
  12.5829680  43.1346620  46.2582080  12.8522780  44.6068400  46.4863410
   9.1954610  45.3015880  52.0776430   8.3814450  45.7313040  52.3402220
   9.6028810  45.9134290  51.4645480  11.2580050  43.3563570  38.9776700
  11.5328890  44.2642450  38.8495920  11.0690790  43.2926100  39.9138690
   7.6555660  36.3808420  40.2730330   8.0740540  36.1939400  39.4326990
   7.3491720  35.5287470  40.5833260  11.1545390  41.2932560  43.9706130
  10.7788990  40.5260490  43.5387420  10.4248510  41.6755260  44.4581060
  10.5445010  40.4404080  53.6045650  10.3131100  40.2116830  52.7043600
  10.8049560  41.3603630  53.5590540   8.9833080  35.6660510  56.3825350
   9.8603260  35.6743910  56.7659350   8.9953920  34.9291350  55.7717700
  10.4296350  39.5190050  47.2713370  10.9533830  39.0252700  46.6403540
  11.0155770  39.6540410  48.0160940  10.6086070  39.6029920  50.7932920
   9.6588780  39.5693460  50.9077910  10.7899080  40.5130030  50.5582690
   9.9196320  38.7763400  43.2105780  10.4155440  38.5434270  43.9954660
   9.7212390  37.9375240  42.7943420  11.3483480  37.4124350  45.7443460
  11.2382760  37.2580390  46.6825730  12.1091070  36.8845290  45.5018870
   9.6949200  33.3518480  52.2026460  10.3321420  33.9652620  52.5685650
   9.8424090  33.3879140  51.2575690  12.2373750  35.2432270  38.9849600
  13.1623060  35.1113450  38.7767890  12.2149540  35.3225090  39.9386050
  12.3112240  36.0142930  41.6106310  11.5163740  35.9488050  42.1399220
  12.5155520  36.9493570  41.5991660   9.2530660  50.0534480  45.6044700
   9.8489730  49.7319050  44.9279120   9.5108810  49.5806300  46.3957970
   3.0653680  34.5044670  55.1101560   3.0042570  35.0966500  55.8596970
   4.0054060  34.3970630  54.9651820   5.7028240  34.1614730  54.7493850
   6.3168650  34.4794020  54.0874930   6.2477800  33.6763320  55.3689710
  12.1203420  50.0606360  52.1555690  11.6261700  50.4575230  51.4382820
  11.5116710  49.4355570  52.5492970   6.4436280  32.7246870  51.0763140
   5.5696120  33.0581980  50.8736070   6.3347030  32.2520050  51.9015010
   7.3508260  34.9317740  52.4604860   7.0221620  34.1169500  52.0806590
   8.2990560  34.8887550  52.3370550   9.8042870  50.7029780  49.4342430
   9.3445840  51.4545590  49.0600450   9.1755330  49.9836250  49.3757230
   2.9734090  49.9026510  49.4359540   3.2611900  49.6480810  48.5592550
   3.4857310  49.3503870  50.0265110   4.1911100  33.6416710  50.0156050
   3.4082890  34.1162210  50.2952810   3.8974030  32.7371540  49.9069230
   8.7432170  34.3439810  48.0605140   9.1840260  34.2884910  47.2126740
   8.4739760  35.2597820  48.1315320  10.6070740  33.9755050  46.0713960
  10.5459140  33.0316270  45.9244980  11.3862770  34.0835140  46.6167420
   6.5790300  32.7245910  46.7655150   7.1819670  33.2966120  47.2403670
   5.8383290  33.2885350  46.5429050   9.7224900  33.1267470  42.0395430
   9.9175530  34.0250920  42.3062860   8.9354770  32.8954550  42.5328380
  11.2751510  50.3668180  43.8001990  11.4503700  49.6805920  43.1562910
  10.5773080  50.8915230  43.4078660   5.7343670  40.9233410  27.5084830
   5.6537720  40.0088020  27.2376540   5.3208090  41.4200480  26.8024540
   3.8661710  42.7012430  29.3894100   3.0903810  42.2212870  29.6792670
   4.5174640  42.0218080  29.2150260   7.8869140  47.1072620  28.1693230
   7.4250670  46.3359860  28.4980400   8.6994690  47.1338690  28.6745680
   4.1132450  49.3930630  27.7897220   3.4943890  49.8488130  27.2191660
   4.9684230  49.5482090  27.3886920   3.3070700  45.3769620  29.3964260
   3.2378980  44.4359560  29.2353390   4.0690560  45.4671030  29.9686830
   4.3375870  38.1840000  29.6233190   4.7140690  37.3111880  29.5106860
   4.2395380  38.5198700  28.7323630   8.1199990  35.6790440  26.5561530
   8.9409610  35.1887010  26.5987010   8.1534070  36.2688100  27.3093370
  12.4099540  37.6957190  33.1205160  11.7051710  38.0838900  32.6020270
  12.6757460  38.3907480  33.7226090   4.9795800  44.2769870  25.1829130
   4.3613070  44.7419320  24.6191850   5.4919050  44.9697350  25.5998640
   8.3561470  37.6190820  29.3289070   7.6517040  37.9075710  29.9092180
   8.7173630  38.4290930  28.9688630   9.9724250  47.2365950  31.5916550
   9.2887770  47.9065060  31.5833220  10.5118540  47.4346600  30.8261410
  11.4248390  37.0645610  29.7198280  10.4773300  37.0984590  29.8513710
  11.7498380  37.8784560  30.1047640   7.5082990  49.0810080  30.3061730
   7.5210150  48.6772370  29.4383990   6.9558210  49.8557370  30.2023160
   8.8028410  45.8026300  25.3951900   8.6924740  44.8600630  25.5201320
   8.7996660  46.1641940  26.2814660   6.9068430  43.9839920  31.6344340
   7.3237220  43.7700030  30.7997800   7.6308250  44.2412710  32.2052960
   4.3448690  41.4291620  24.7514390   3.4177970  41.3629000  24.9802860
   4.4973510  42.3671750  24.6369630   4.3317770  37.7008620  21.7481550
   3.3921440  37.8622580  21.8334010   4.6501030  38.4194300  21.2017540
  10.8530530  42.3827140  31.7260580  10.0249160  42.4520230  31.2510710
  11.4481010  42.9681450  31.2576410   8.3745980  42.9911920  25.2549640
   7.7558400  42.6531470  24.6075940   8.3570430  42.3471680  25.9628830
   7.8172540  39.1696460  32.6715450   7.4043720  39.9950170  32.9255440
   7.0848490  38.5841500  32.4791810   8.5072640  49.2155790  33.3596430
   8.0303200  50.0227980  33.1669040   7.8234430  48.5634120  33.5122640
   6.5510680  42.2298730  22.2622390   6.9903960  41.3921160  22.1160210
   7.2639100  42.8628130  22.3486530   4.6606060  47.1694800  26.2303630
   5.1001970  47.9119130  25.8159020   4.5992950  47.4121370  27.1542590
  10.1327820  33.4841540  20.5763430   9.8200480  33.5768370  21.4762500
  10.8940290  34.0622570  20.5260860  12.0871850  48.9767730  38.4287820
  12.5631570  49.4550620  39.1076900  12.7079010  48.9085220  37.7033320
  11.4905100  46.1680580  35.5887830  11.6168160  45.9292460  34.6705010
  11.5326480  45.3365120  36.0609910   5.3521840  49.8708580  34.1582640
   5.8666510  49.7816590  34.9605070   4.5090920  50.2168280  34.4510550
   7.3276240  50.1563920  23.5866640   7.1677380  49.8666860  24.4848470
   7.1622950  49.3804050  23.0511870   7.0302370  47.6651480  22.1464640
   6.3367530  47.6628770  21.4866920   7.7725230  47.2410800  21.7158810
   6.5952300  49.2914190  26.2213130   7.0509250  48.5103570  26.5351750
   6.9344820  50.0021010  26.7654310  11.3429110  38.2213040  36.5537570
  10.7273380  38.7292710  36.0253030  11.0225530  37.3211370  36.4963510
   3.4043430  37.0604930  34.0199760   2.9422800  37.2687950  34.8319700
   3.0021540  36.2464280  33.7170430   8.4047940  38.2813880  35.1496420
   7.5541530  37.9819630  35.4705490   8.2449730  38.5255890  34.2380240
   5.4997650  39.7815630  37.2495210   5.8251060  38.9479380  36.9097440
   6.2877980  40.3044150  37.3973540   6.1385600  39.3233350  24.7436340
   5.5394490  40.0469150  24.5599960   6.6865210  39.2610130  23.9612790
   4.7450470  37.9596890  26.7739620   5.1380040  38.2769090  25.9608310
   5.1067320  37.0808770  26.8884140   3.0542640  36.7104200  38.0336480
   2.3640960  36.5176400  38.6682570   3.7974940  36.9938840  38.5660780
   5.3305610  40.5502640  30.8690400   4.5986730  41.0589450  31.2180500
   4.9329950  39.7332620  30.5679180   1.7683000  37.2256840  29.2742890
   1.7719060  36.7846790  28.4247430   2.6634120  37.5474170  29.3814710
   5.7931520  36.0036320  30.2813340   5.8104260  36.4544970  31.1255190
   5.5447100  35.1041960  30.4946780   9.2202270  33.4168500  36.1199720
   9.5448040  32.6858160  36.6457700   9.2558780  33.0982140  35.2180710
   2.0690970  41.2858620  31.0208300   2.4361100  40.8117190  31.7669640
   1.8796030  42.1600190  31.3616640   9.1460110  43.5293610  29.7285750
   9.8659230  44.0248900  29.3381860   8.9441930  42.8511500  29.0839620
   4.6070050  34.9231570  23.8715140   3.7934660  34.4244740  23.7960450
   4.4132000  35.7629820  23.4551490   4.5278910  43.6002670  35.6154750
   4.4616220  42.6798340  35.3612340   3.8984050  43.6978110  36.3299390
   7.3218440  39.2951220  22.1677300   8.2098060  39.6068450  21.9928640
   7.2923530  38.4223470  21.7757880   3.3179030  45.4674910  22.8465470
   3.6594730  46.2117140  22.3508790   2.4891740  45.7806030  23.2090300
   4.4595640  46.4223240  35.3658550   4.4740180  45.4904200  35.1477460
   3.7520740  46.5083000  36.0048320   9.5932710  40.6063060  21.6357160
   9.5096430  41.0377280  20.7853600  10.3126900  41.0661410  22.0683980
  10.6706850  43.0630580  34.7127130   9.9455040  43.6559360  34.5156520
  11.1982310  43.0554120  33.9140500  10.6219960  47.4605320  24.3639290
   9.9796120  46.8060940  24.6383010  10.2350620  47.8660410  23.5879960
   6.2006440  44.7890750  28.2110980   6.5530260  44.1918880  27.5512350
   5.3168770  44.4634980  28.3819230   3.8929540  48.0640810  32.4599050
   4.5371760  48.2700190  33.1372470   4.2558980  47.3029210  32.0069900
   5.1661620  46.0673160  31.1776500   5.8083850  45.3666320  31.2908670
   5.6910970  46.8471600  30.9973390   9.0117340  46.3521780  20.9015640
   8.7854920  45.6352220  21.4940280   8.6213540  46.1034220  20.0637390
   6.9399240  46.8668060  34.3812560   7.2755480  47.4534750  35.0590480
   6.0199580  46.7360770  34.6110350   8.5933590  44.2693720  22.5629800
   8.3055290  44.7306410  23.3507680   9.3885760  43.8091490  22.8314020
   2.7687820  46.9159390  37.5500620   2.4484690  46.1968630  38.0946310
   2.0946180  47.5914460  37.6236680   5.9841420  37.1485550  32.9137420
   6.3522240  36.3280760  33.2416990   5.1239620  37.2087440  33.3293070
   9.3503450  36.1042490  23.7224980   8.7216610  36.2088160  23.0083210
   8.8555370  36.3239270  24.5118860   3.7961590  47.8248080  21.1558960
   3.8973570  47.6212070  20.2260940   2.8963330  47.5706360  21.3606740
   2.9443410  39.8025140  33.1375390   3.4428660  40.2770960  33.8027240
   3.0866360  38.8788660  33.3445420   5.3502910  35.1079100  26.5778650
   5.2270690  35.1265230  25.6288160   6.2987470  35.1558040  26.6977050
  10.1510270  36.0193100  33.9803780   9.6483870  36.7598500  34.3197590
  10.9666930  36.4077100  33.6640570   8.4432280  41.2626280  27.4265140
   7.5022420  41.2776510  27.6012830   8.7576350  40.4762240  27.8725440
  10.4457860  48.4335130  29.1019400  10.5705280  49.2566300  29.5743210
  11.3123420  48.2225860  28.7543550   5.7598300  45.8192280  37.9097520
   5.1536460  45.8423880  37.1693270   5.4552410  45.0875320  38.4464770
   7.1898670  49.5472570  36.5206930   8.1420420  49.4630590  36.4707170
   7.0426890  50.2114280  37.1940720  10.0807870  48.9266780  22.0198840
   9.7949380  48.5131920  21.2053020   9.8827420  49.8554490  21.8999360
   4.7857830  43.9820090  21.0646440   4.2367930  44.4289390  21.7089180
   5.4077090  43.4769340  21.5884110   8.8392770  45.3362190  36.9968700
   9.5802240  45.6737950  36.4936160   8.0765450  45.5054250  36.4438470
   2.9660590  41.9648620  20.2088840   3.4866250  41.2497640  19.8429990
   3.6128990  42.6034490  20.5089350   7.5138430  43.3877020  35.5323910
   7.9279450  43.5422100  36.3814330   6.5789430  43.5132240  35.6949690
   7.9860600  40.7273180  37.5363060   8.5681370  39.9725500  37.4483540
   8.1622370  41.2580620  36.7594540   4.6117560  41.0713680  34.8857680
   4.7313770  40.4754820  35.6252520   5.4711560  41.1083370  34.4658980
   6.9505460  41.6250870  33.4620190   6.4240680  42.1493490  32.8585330
   7.2936800  42.2578260  34.0929920   6.1979760  37.2300840  36.3766520
   5.5095280  36.5682380  36.3116510   6.9185780  36.7839110  36.8214980
   6.8280160  33.8252470  22.4356780   7.1082450  32.9820370  22.7916200
   6.0545890  34.0575580  22.9495530   2.9823290  50.8801720  34.8764220
   2.9081990  51.7836860  35.1836590   2.0802130  50.5613620  34.8486290
   3.5308620  50.0460230  22.4990580   4.4259410  50.3845200  22.5209340
   3.5626250  49.3239640  21.8714860  10.5102970  48.5763900  35.2056780
   9.9104960  48.6356460  34.4620700  10.6396870  47.6368880  35.3353630
  11.7504420  46.3181720  20.5426490  10.9197380  46.3858370  21.0133720
  11.9276250  47.2085840  20.2393350  11.2060880  43.0629200  23.0460690
  11.9679790  43.6325850  23.1520380  11.2215250  42.4956400  23.8169000
  12.2120850  43.9179300  27.8902620  12.5829680  43.1346620  27.4838590
  12.8522780  44.6068400  27.7119920   9.1954610  45.3015880  33.3032940
   8.3814450  45.7313040  33.5658730   9.6028810  45.9134290  32.6901990
  11.2580050  43.3563570  20.2033210  11.5328890  44.2642450  20.0752430
  11.0690790  43.2926100  21.1395200   7.6555660  36.3808420  21.4986840
   8.0740540  36.1939400  20.6583500   7.3491720  35.5287470  21.8089770
  11.1545390  41.2932560  25.1962640  10.7788990  40.5260490  24.7643930
  10.4248510  41.6755260  25.6837570  10.5445010  40.4404080  34.8302160
  10.3131100  40.2116830  33.9300110  10.8049560  41.3603630  34.7847050
   8.9833080  35.6660510  37.6081860   9.8603260  35.6743910  37.9915860
   8.9953920  34.9291350  36.9974210  10.4296350  39.5190050  28.4969880
  10.9533830  39.0252700  27.8660050  11.0155770  39.6540410  29.2417450
  10.6086070  39.6029920  32.0189430   9.6588780  39.5693460  32.1334420
  10.7899080  40.5130030  31.7839200   9.9196320  38.7763400  24.4362290
  10.4155440  38.5434270  25.2211170   9.7212390  37.9375240  24.0199930
  11.3483480  37.4124350  26.9699970  11.2382760  37.2580390  27.9082240
  12.1091070  36.8845290  26.7275380   9.6949200  33.3518480  33.4282970
  10.3321420  33.9652620  33.7942160   9.8424090  33.3879140  32.4832200
  12.2373750  35.2432270  20.2106110  13.1623060  35.1113450  20.0024400
  12.2149540  35.3225090  21.1642560  12.3112240  36.0142930  22.8362820
  11.5163740  35.9488050  23.3655730  12.5155520  36.9493570  22.8248170
   9.2530660  50.0534480  26.8301210   9.8489730  49.7319050  26.1535630
   9.5108810  49.5806300  27.6214480   3.0653680  34.5044670  36.3358070
   3.0042570  35.0966500  37.0853480   4.0054060  34.3970630  36.1908330
   5.7028240  34.1614730  35.9750360   6.3168650  34.4794020  35.3131440
   6.2477800  33.6763320  36.5946220  12.1203420  50.0606360  33.3812200
  11.6261700  50.4575230  32.6639330  11.5116710  49.4355570  33.7749480
   6.4436280  32.7246870  32.3019650   5.5696120  33.0581980  32.0992580
   6.3347030  32.2520050  33.1271520   7.3508260  34.9317740  33.6861370
   7.0221620  34.1169500  33.3063100   8.2990560  34.8887550  33.5627060
   9.8042870  50.7029780  30.6598940   9.3445840  51.4545590  30.2856960
   9.1755330  49.9836250  30.6013740   2.9734090  49.9026510  30.6616050
   3.2611900  49.6480810  29.7849060   3.4857310  49.3503870  31.2521620
   4.1911100  33.6416710  31.2412560   3.4082890  34.1162210  31.5209320
   3.8974030  32.7371540  31.1325740   8.7432170  34.3439810  29.2861650
   9.1840260  34.2884910  28.4383250   8.4739760  35.2597820  29.3571830
  10.6070740  33.9755050  27.2970470  10.5459140  33.0316270  27.1501490
  11.3862770  34.0835140  27.8423930   6.5790300  32.7245910  27.9911660
   7.1819670  33.2966120  28.4660180   5.8383290  33.2885350  27.7685560
   9.7224900  33.1267470  23.2651940   9.9175530  34.0250920  23.5319370
   8.9354770  32.8954550  23.7584890   3.0406450  50.8242610  38.0284250
   3.9673760  50.5886880  38.0720210   3.0256880  51.6514610  37.5470280
  11.2751510  50.3668180  25.0258500  11.4503700  49.6805920  24.3819420
  10.5773080  50.8915230  24.6335170   6.8285520  32.9040940  38.3706600
   6.7150970  33.2235550  39.2658120   7.6455260  33.3053450  38.0743880
   9.6084010  50.0512470  37.8525290  10.4009330  49.5561700  37.6451250
   9.9017160  50.7302610  38.4600900   5.7343670  40.9233410   8.7341340
   5.6537720  40.0088020   8.4633050   5.3208090  41.4200480   8.0281050
   3.8661710  42.7012430  10.6150610   3.0903810  42.2212870  10.9049180
   4.5174640  42.0218080  10.4406770   7.8869140  47.1072620   9.3949740
   7.4250670  46.3359860   9.7236910   8.6994690  47.1338690   9.9002190
   4.1132450  49.3930630   9.0153730   3.4943890  49.8488130   8.4448170
   4.9684230  49.5482090   8.6143430   3.3070700  45.3769620  10.6220770
   3.2378980  44.4359560  10.4609900   4.0690560  45.4671030  11.1943340
   4.3375870  38.1840000  10.8489700   4.7140690  37.3111880  10.7363370
   4.2395380  38.5198700   9.9580140   8.1199990  35.6790440   7.7818040
   8.9409610  35.1887010   7.8243520   8.1534070  36.2688100   8.5349880
  12.4099540  37.6957190  14.3461670  11.7051710  38.0838900  13.8276780
  12.6757460  38.3907480  14.9482600   4.9795800  44.2769870   6.4085640
   4.3613070  44.7419320   5.8448360   5.4919050  44.9697350   6.8255150
   8.3561470  37.6190820  10.5545580   7.6517040  37.9075710  11.1348690
   8.7173630  38.4290930  10.1945140   9.9724250  47.2365950  12.8173060
   9.2887770  47.9065060  12.8089730  10.5118540  47.4346600  12.0517920
  11.4248390  37.0645610  10.9454790  10.4773300  37.0984590  11.0770220
  11.7498380  37.8784560  11.3304150   7.5082990  49.0810080  11.5318240
   7.5210150  48.6772370  10.6640500   6.9558210  49.8557370  11.4279670
   8.8028410  45.8026300   6.6208410   8.6924740  44.8600630   6.7457830
   8.7996660  46.1641940   7.5071170   6.9068430  43.9839920  12.8600850
   7.3237220  43.7700030  12.0254310   7.6308250  44.2412710  13.4309470
   4.3448690  41.4291620   5.9770900   3.4177970  41.3629000   6.2059370
   4.4973510  42.3671750   5.8626140   4.3317770  37.7008620   2.9738060
   3.3921440  37.8622580   3.0590520   4.6501030  38.4194300   2.4274050
  10.8530530  42.3827140  12.9517090  10.0249160  42.4520230  12.4767220
  11.4481010  42.9681450  12.4832920   8.3745980  42.9911920   6.4806150
   7.7558400  42.6531470   5.8332450   8.3570430  42.3471680   7.1885340
   7.8172540  39.1696460  13.8971960   7.4043720  39.9950170  14.1511950
   7.0848490  38.5841500  13.7048320   8.5072640  49.2155790  14.5852940
   8.0303200  50.0227980  14.3925550   7.8234430  48.5634120  14.7379150
   6.5510680  42.2298730   3.4878900   6.9903960  41.3921160   3.3416720
   7.2639100  42.8628130   3.5743040   4.6606060  47.1694800   7.4560140
   5.1001970  47.9119130   7.0415530   4.5992950  47.4121370   8.3799100
  10.1327820  33.4841540   1.8019940   9.8200480  33.5768370   2.7019010
  10.8940290  34.0622570   1.7517370  12.0871850  48.9767730  19.6544330
  12.5631570  49.4550620  20.3333410  12.7079010  48.9085220  18.9289830
  11.4905100  46.1680580  16.8144340  11.6168160  45.9292460  15.8961520
  11.5326480  45.3365120  17.2866420   5.3521840  49.8708580  15.3839150
   5.8666510  49.7816590  16.1861580   4.5090920  50.2168280  15.6767060
   7.3276240  50.1563920   4.8123150   7.1677380  49.8666860   5.7104980
   7.1622950  49.3804050   4.2768380   7.0302370  47.6651480   3.3721150
   6.3367530  47.6628770   2.7123430   7.7725230  47.2410800   2.9415320
   6.5952300  49.2914190   7.4469640   7.0509250  48.5103570   7.7608260
   6.9344820  50.0021010   7.9910820  11.3429110  38.2213040  17.7794080
  10.7273380  38.7292710  17.2509540  11.0225530  37.3211370  17.7220020
   3.4043430  37.0604930  15.2456270   2.9422800  37.2687950  16.0576210
   3.0021540  36.2464280  14.9426940   8.4047940  38.2813880  16.3752930
   7.5541530  37.9819630  16.6962000   8.2449730  38.5255890  15.4636750
   5.4997650  39.7815630  18.4751720   5.8251060  38.9479380  18.1353950
   6.2877980  40.3044150  18.6230050   6.1385600  39.3233350   5.9692850
   5.5394490  40.0469150   5.7856470   6.6865210  39.2610130   5.1869300
   4.7450470  37.9596890   7.9996130   5.1380040  38.2769090   7.1864820
   5.1067320  37.0808770   8.1140650   3.0542640  36.7104200  19.2592990
   2.3640960  36.5176400  19.8939080   3.7974940  36.9938840  19.7917290
   5.3305610  40.5502640  12.0946910   4.5986730  41.0589450  12.4437010
   4.9329950  39.7332620  11.7935690   1.7683000  37.2256840  10.4999400
   1.7719060  36.7846790   9.6503940   2.6634120  37.5474170  10.6071220
   5.7931520  36.0036320  11.5069850   5.8104260  36.4544970  12.3511700
   5.5447100  35.1041960  11.7203290   9.2202270  33.4168500  17.3456230
   9.5448040  32.6858160  17.8714210   9.2558780  33.0982140  16.4437220
   2.0690970  41.2858620  12.2464810   2.4361100  40.8117190  12.9926150
   1.8796030  42.1600190  12.5873150   9.1460110  43.5293610  10.9542260
   9.8659230  44.0248900  10.5638370   8.9441930  42.8511500  10.3096130
   4.6070050  34.9231570   5.0971650   3.7934660  34.4244740   5.0216960
   4.4132000  35.7629820   4.6808000   4.5278910  43.6002670  16.8411260
   4.4616220  42.6798340  16.5868850   3.8984050  43.6978110  17.5555900
   7.3218440  39.2951220   3.3933810   8.2098060  39.6068450   3.2185150
   7.2923530  38.4223470   3.0014390   3.3179030  45.4674910   4.0721980
   3.6594730  46.2117140   3.5765300   2.4891740  45.7806030   4.4346810
   4.4595640  46.4223240  16.5915060   4.4740180  45.4904200  16.3733970
   3.7520740  46.5083000  17.2304830   9.5932710  40.6063060   2.8613670
   9.5096430  41.0377280   2.0110110  10.3126900  41.0661410   3.2940490
  10.6706850  43.0630580  15.9383640   9.9455040  43.6559360  15.7413030
  11.1982310  43.0554120  15.1397010  10.6219960  47.4605320   5.5895800
   9.9796120  46.8060940   5.8639520  10.2350620  47.8660410   4.8136470
   6.2006440  44.7890750   9.4367490   6.5530260  44.1918880   8.7768860
   5.3168770  44.4634980   9.6075740   3.8929540  48.0640810  13.6855560
   4.5371760  48.2700190  14.3628980   4.2558980  47.3029210  13.2326410
   5.1661620  46.0673160  12.4033010   5.8083850  45.3666320  12.5165180
   5.6910970  46.8471600  12.2229900   6.9399240  46.8668060  15.6069070
   7.2755480  47.4534750  16.2846990   6.0199580  46.7360770  15.8366860
   8.5933590  44.2693720   3.7886310   8.3055290  44.7306410   4.5764190
   9.3885760  43.8091490   4.0570530   2.7687820  46.9159390  18.7757130
   2.4484690  46.1968630  19.3202820   2.0946180  47.5914460  18.8493190
   5.9841420  37.1485550  14.1393930   6.3522240  36.3280760  14.4673500
   5.1239620  37.2087440  14.5549580   9.3503450  36.1042490   4.9481490
   8.7216610  36.2088160   4.2339720   8.8555370  36.3239270   5.7375370
   3.7961590  47.8248080   2.3815470   3.8973570  47.6212070   1.4517450
   2.8963330  47.5706360   2.5863250   2.9443410  39.8025140  14.3631900
   3.4428660  40.2770960  15.0283750   3.0866360  38.8788660  14.5701930
   5.3502910  35.1079100   7.8035160   5.2270690  35.1265230   6.8544670
   6.2987470  35.1558040   7.9233560  10.1510270  36.0193100  15.2060290
   9.6483870  36.7598500  15.5454100  10.9666930  36.4077100  14.8897080
   8.4432280  41.2626280   8.6521650   7.5022420  41.2776510   8.8269340
   8.7576350  40.4762240   9.0981950  10.4457860  48.4335130  10.3275910
  10.5705280  49.2566300  10.7999720  11.3123420  48.2225860   9.9800060
   5.7598300  45.8192280  19.1354030   5.1536460  45.8423880  18.3949780
   5.4552410  45.0875320  19.6721280   7.1898670  49.5472570  17.7463440
   8.1420420  49.4630590  17.6963680   7.0426890  50.2114280  18.4197230
  10.0807870  48.9266780   3.2455350   9.7949380  48.5131920   2.4309530
   9.8827420  49.8554490   3.1255870   4.7857830  43.9820090   2.2902950
   4.2367930  44.4289390   2.9345690   5.4077090  43.4769340   2.8140620
   8.8392770  45.3362190  18.2225210   9.5802240  45.6737950  17.7192670
   8.0765450  45.5054250  17.6694980   7.5138430  43.3877020  16.7580420
   7.9279450  43.5422100  17.6070840   6.5789430  43.5132240  16.9206200
   7.9860600  40.7273180  18.7619570   8.5681370  39.9725500  18.6740050
   8.1622370  41.2580620  17.9851050   4.6117560  41.0713680  16.1114190
   4.7313770  40.4754820  16.8509030   5.4711560  41.1083370  15.6915490
   6.9505460  41.6250870  14.6876700   6.4240680  42.1493490  14.0841840
   7.2936800  42.2578260  15.3186430   6.1979760  37.2300840  17.6023030
   5.5095280  36.5682380  17.5373020   6.9185780  36.7839110  18.0471490
   6.8280160  33.8252470   3.6613290   7.1082450  32.9820370   4.0172710
   6.0545890  34.0575580   4.1752040   2.9823290  50.8801720  16.1020730
   2.9081990  51.7836860  16.4093100   2.0802130  50.5613620  16.0742800
   3.5308620  50.0460230   3.7247090   4.4259410  50.3845200   3.7465850
   3.5626250  49.3239640   3.0971370  10.5102970  48.5763900  16.4313290
   9.9104960  48.6356460  15.6877210  10.6396870  47.6368880  16.5610140
  11.7504420  46.3181720   1.7683000  10.9197380  46.3858370   2.2390230
  11.9276250  47.2085840   1.4649860  11.2060880  43.0629200   4.2717200
  11.9679790  43.6325850   4.3776890  11.2215250  42.4956400   5.0425510
  12.2120850  43.9179300   9.1159130  12.5829680  43.1346620   8.7095100
  12.8522780  44.6068400   8.9376430   9.1954610  45.3015880  14.5289450
   8.3814450  45.7313040  14.7915240   9.6028810  45.9134290  13.9158500
   7.6555660  36.3808420   2.7243350   8.0740540  36.1939400   1.8840010
   7.3491720  35.5287470   3.0346280  11.1545390  41.2932560   6.4219150
  10.7788990  40.5260490   5.9900440  10.4248510  41.6755260   6.9094080
  10.5445010  40.4404080  16.0558670  10.3131100  40.2116830  15.1556620
  10.8049560  41.3603630  16.0103560   8.9833080  35.6660510  18.8338370
   9.8603260  35.6743910  19.2172370   8.9953920  34.9291350  18.2230720
  10.4296350  39.5190050   9.7226390  10.9533830  39.0252700   9.0916560
  11.0155770  39.6540410  10.4673960  10.6086070  39.6029920  13.2445940
   9.6588780  39.5693460  13.3590930  10.7899080  40.5130030  13.0095710
   9.9196320  38.7763400   5.6618800  10.4155440  38.5434270   6.4467680
   9.7212390  37.9375240   5.2456440  11.3483480  37.4124350   8.1956480
  11.2382760  37.2580390   9.1338750  12.1091070  36.8845290   7.9531890
   9.6949200  33.3518480  14.6539480  10.3321420  33.9652620  15.0198670
   9.8424090  33.3879140  13.7088710  12.3112240  36.0142930   4.0619330
  11.5163740  35.9488050   4.5912240  12.5155520  36.9493570   4.0504680
   9.2530660  50.0534480   8.0557720   9.8489730  49.7319050   7.3792140
   9.5108810  49.5806300   8.8470990   3.0653680  34.5044670  17.5614580
   3.0042570  35.0966500  18.3109990   4.0054060  34.3970630  17.4164840
   5.7028240  34.1614730  17.2006870   6.3168650  34.4794020  16.5387950
   6.2477800  33.6763320  17.8202730  12.1203420  50.0606360  14.6068710
  11.6261700  50.4575230  13.8895840  11.5116710  49.4355570  15.0005990
   6.4436280  32.7246870  13.5276160   5.5696120  33.0581980  13.3249090
   6.3347030  32.2520050  14.3528030   7.3508260  34.9317740  14.9117880
   7.0221620  34.1169500  14.5319610   8.2990560  34.8887550  14.7883570
   9.8042870  50.7029780  11.8855450   9.3445840  51.4545590  11.5113470
   9.1755330  49.9836250  11.8270250   2.9734090  49.9026510  11.8872560
   3.2611900  49.6480810  11.0105570   3.4857310  49.3503870  12.4778130
   4.1911100  33.6416710  12.4669070   3.4082890  34.1162210  12.7465830
   3.8974030  32.7371540  12.3582250   8.7432170  34.3439810  10.5118160
   9.1840260  34.2884910   9.6639760   8.4739760  35.2597820  10.5828340
  10.6070740  33.9755050   8.5226980  10.5459140  33.0316270   8.3758000
  11.3862770  34.0835140   9.0680440   6.5790300  32.7245910   9.2168170
   7.1819670  33.2966120   9.6916690   5.8383290  33.2885350   8.9942070
   9.7224900  33.1267470   4.4908450   9.9175530  34.0250920   4.7575880
   8.9354770  32.8954550   4.9841400   3.0406450  50.8242610  19.2540760
   3.9673760  50.5886880  19.2976720   3.0256880  51.6514610  18.7726790
  11.2751510  50.3668180   6.2515010  11.4503700  49.6805920   5.6075930
  10.5773080  50.8915230   5.8591680   6.8285520  32.9040940  19.5963110
   6.7150970  33.2235550  20.4914630   7.6455260  33.3053450  19.3000390
   9.6084010  50.0512470  19.0781800  10.4009330  49.5561700  18.8707760
   9.9017160  50.7302610  19.6857410   5.7343670  22.1489920  46.2828320
   5.6537720  21.2344530  46.0120030   5.3208090  22.6456990  45.5768030
   3.8661710  23.9268940  48.1637590   3.0903810  23.4469380  48.4536160
   4.5174640  23.2474590  47.9893750   7.8869140  28.3329130  46.9436720
   7.4250670  27.5616370  47.2723890   8.6994690  28.3595200  47.4489170
   4.1132450  30.6187140  46.5640710   3.4943890  31.0744640  45.9935150
   4.9684230  30.7738600  46.1630410   3.3070700  26.6026130  48.1707750
   3.2378980  25.6616070  48.0096880   4.0690560  26.6927540  48.7430320
   4.3375870  19.4096510  48.3976680   4.7140690  18.5368390  48.2850350
   4.2395380  19.7455210  47.5067120   8.1199990  16.9046950  45.3305020
   8.9409610  16.4143520  45.3730500   8.1534070  17.4944610  46.0836860
  12.4099540  18.9213700  51.8948650  11.7051710  19.3095410  51.3763760
  12.6757460  19.6163990  52.4969580   4.9795800  25.5026380  43.9572620
   4.3613070  25.9675830  43.3935340   5.4919050  26.1953860  44.3742130
   8.3561470  18.8447330  48.1032560   7.6517040  19.1332220  48.6835670
   8.7173630  19.6547440  47.7432120   9.9724250  28.4622460  50.3660040
   9.2887770  29.1321570  50.3576710  10.5118540  28.6603110  49.6004900
  11.4248390  18.2902120  48.4941770  10.4773300  18.3241100  48.6257200
  11.7498380  19.1041070  48.8791130   7.5082990  30.3066590  49.0805220
   7.5210150  29.9028880  48.2127480   6.9558210  31.0813880  48.9766650
   8.8028410  27.0282810  44.1695390   8.6924740  26.0857140  44.2944810
   8.7996660  27.3898450  45.0558150   6.9068430  25.2096430  50.4087830
   7.3237220  24.9956540  49.5741290   7.6308250  25.4669220  50.9796450
   4.3448690  22.6548130  43.5257880   3.4177970  22.5885510  43.7546350
   4.4973510  23.5928260  43.4113120   4.3317770  18.9265130  40.5225040
   3.3921440  19.0879090  40.6077500   4.6501030  19.6450810  39.9761030
  10.8530530  23.6083650  50.5004070  10.0249160  23.6776740  50.0254200
  11.4481010  24.1937960  50.0319900   8.3745980  24.2168430  44.0293130
   7.7558400  23.8787980  43.3819430   8.3570430  23.5728190  44.7372320
   7.8172540  20.3952970  51.4458940   7.4043720  21.2206680  51.6998930
   7.0848490  19.8098010  51.2535300   8.5072640  30.4412300  52.1339920
   8.0303200  31.2484490  51.9412530   7.8234430  29.7890630  52.2866130
   6.5510680  23.4555240  41.0365880   6.9903960  22.6177670  40.8903700
   7.2639100  24.0884640  41.1230020   4.6606060  28.3951310  45.0047120
   5.1001970  29.1375640  44.5902510   4.5992950  28.6377880  45.9286080
  10.1327820  14.7098050  39.3506920   9.8200480  14.8024880  40.2505990
  10.8940290  15.2879080  39.3004350  11.4905100  27.3937090  54.3631320
  11.6168160  27.1548970  53.4448500  11.5326480  26.5621630  54.8353400
   5.3521840  31.0965090  52.9326130   5.8666510  31.0073100  53.7348560
   4.5090920  31.4424790  53.2254040   7.3276240  31.3820430  42.3610130
   7.1677380  31.0923370  43.2591960   7.1622950  30.6060560  41.8255360
   7.0302370  28.8907990  40.9208130   6.3367530  28.8885280  40.2610410
   7.7725230  28.4667310  40.4902300   6.5952300  30.5170700  44.9956620
   7.0509250  29.7360080  45.3095240   6.9344820  31.2277520  45.5397800
  11.3429110  19.4469550  55.3281060  10.7273380  19.9549220  54.7996520
  11.0225530  18.5467880  55.2707000   3.4043430  18.2861440  52.7943250
   2.9422800  18.4944460  53.6063190   3.0021540  17.4720790  52.4913920
   8.4047940  19.5070390  53.9239910   7.5541530  19.2076140  54.2448980
   8.2449730  19.7512400  53.0123730   5.4997650  21.0072140  56.0238700
   5.8251060  20.1735890  55.6840930   6.2877980  21.5300660  56.1717030
   6.1385600  20.5489860  43.5179830   5.5394490  21.2725660  43.3343450
   6.6865210  20.4866640  42.7356280   4.7450470  19.1853400  45.5483110
   5.1380040  19.5025600  44.7351800   5.1067320  18.3065280  45.6627630
   5.3305610  21.7759150  49.6433890   4.5986730  22.2845960  49.9923990
   4.9329950  20.9589130  49.3422670   1.7683000  18.4513350  48.0486380
   1.7719060  18.0103300  47.1990920   2.6634120  18.7730680  48.1558200
   5.7931520  17.2292830  49.0556830   5.8104260  17.6801480  49.8998680
   5.5447100  16.3298470  49.2690270   9.2202270  14.6425010  54.8943210
   9.5448040  13.9114670  55.4201190   9.2558780  14.3238650  53.9924200
   2.0690970  22.5115130  49.7951790   2.4361100  22.0373700  50.5413130
   1.8796030  23.3856700  50.1360130   9.1460110  24.7550120  48.5029240
   9.8659230  25.2505410  48.1125350   8.9441930  24.0768010  47.8583110
   4.6070050  16.1488080  42.6458630   3.7934660  15.6501250  42.5703940
   4.4132000  16.9886330  42.2294980   4.5278910  24.8259180  54.3898240
   4.4616220  23.9054850  54.1355830   3.8984050  24.9234620  55.1042880
   7.3218440  20.5207730  40.9420790   8.2098060  20.8324960  40.7672130
   7.2923530  19.6479980  40.5501370   3.3179030  26.6931420  41.6208960
   3.6594730  27.4373650  41.1252280   2.4891740  27.0062540  41.9833790
   4.4595640  27.6479750  54.1402040   4.4740180  26.7160710  53.9220950
   3.7520740  27.7339510  54.7791810   9.5932710  21.8319570  40.4100650
   9.5096430  22.2633790  39.5597090  10.3126900  22.2917920  40.8427470
  10.6706850  24.2887090  53.4870620   9.9455040  24.8815870  53.2900010
  11.1982310  24.2810630  52.6883990  10.6219960  28.6861830  43.1382780
   9.9796120  28.0317450  43.4126500  10.2350620  29.0916920  42.3623450
   6.2006440  26.0147260  46.9854470   6.5530260  25.4175390  46.3255840
   5.3168770  25.6891490  47.1562720   3.8929540  29.2897320  51.2342540
   4.5371760  29.4956700  51.9115960   4.2558980  28.5285720  50.7813390
   5.1661620  27.2929670  49.9519990   5.8083850  26.5922830  50.0652160
   5.6910970  28.0728110  49.7716880   9.0117340  27.5778290  39.6759130
   8.7854920  26.8608730  40.2683770   8.6213540  27.3290730  38.8380880
   6.9399240  28.0924570  53.1556050   7.2755480  28.6791260  53.8333970
   6.0199580  27.9617280  53.3853840   8.5933590  25.4950230  41.3373290
   8.3055290  25.9562920  42.1251170   9.3885760  25.0348000  41.6057510
   5.9841420  18.3742060  51.6880910   6.3522240  17.5537270  52.0160480
   5.1239620  18.4343950  52.1036560   9.3503450  17.3299000  42.4968470
   8.7216610  17.4344670  41.7826700   8.8555370  17.5495780  43.2862350
   3.7961590  29.0504590  39.9302450   3.8973570  28.8468580  39.0004430
   2.8963330  28.7962870  40.1350230   2.9443410  21.0281650  51.9118880
   3.4428660  21.5027470  52.5770730   3.0866360  20.1045170  52.1188910
   5.3502910  16.3335610  45.3522140   5.2270690  16.3521740  44.4031650
   6.2987470  16.3814550  45.4720540  10.1510270  17.2449610  52.7547270
   9.6483870  17.9855010  53.0941080  10.9666930  17.6333610  52.4384060
   8.4432280  22.4882790  46.2008630   7.5022420  22.5033020  46.3756320
   8.7576350  21.7018750  46.6468930  10.4457860  29.6591640  47.8762890
  10.5705280  30.4822810  48.3486700  11.3123420  29.4482370  47.5287040
   7.1898670  30.7729080  55.2950420   8.1420420  30.6887100  55.2450660
   7.0426890  31.4370790  55.9684210  10.0807870  30.1523290  40.7942330
   9.7949380  29.7388430  39.9796510   9.8827420  31.0811000  40.6742850
   4.7857830  25.2076600  39.8389930   4.2367930  25.6545900  40.4832670
   5.4077090  24.7025850  40.3627600   8.8392770  26.5618700  55.7712190
   9.5802240  26.8994460  55.2679650   8.0765450  26.7310760  55.2181960
   2.9660590  23.1905130  38.9832330   3.4866250  22.4754150  38.6173480
   3.6128990  23.8291000  39.2832840   7.5138430  24.6133530  54.3067400
   7.9279450  24.7678610  55.1557820   6.5789430  24.7388750  54.4693180
   7.9860600  21.9529690  56.3106550   8.5681370  21.1982010  56.2227030
   8.1622370  22.4837130  55.5338030   4.6117560  22.2970190  53.6601170
   4.7313770  21.7011330  54.3996010   5.4711560  22.3339880  53.2402470
   6.9505460  22.8507380  52.2363680   6.4240680  23.3750000  51.6328820
   7.2936800  23.4834770  52.8673410   6.1979760  18.4557350  55.1510010
   5.5095280  17.7938890  55.0860000   6.9185780  18.0095620  55.5958470
   6.8280160  15.0508980  41.2100270   7.1082450  14.2076880  41.5659690
   6.0545890  15.2832090  41.7239020   2.9823290  32.1058230  53.6507710
   2.9081990  33.0093370  53.9580080   2.0802130  31.7870130  53.6229780
   3.5308620  31.2716740  41.2734070   4.4259410  31.6101710  41.2952830
   3.5626250  30.5496150  40.6458350  10.5102970  29.8020410  53.9800270
   9.9104960  29.8612970  53.2364190  10.6396870  28.8625390  54.1097120
  11.7504420  27.5438230  39.3169980  10.9197380  27.6114880  39.7877210
  11.9276250  28.4342350  39.0136840  11.2060880  24.2885710  41.8204180
  11.9679790  24.8582360  41.9263870  11.2215250  23.7212910  42.5912490
  12.2120850  25.1435810  46.6646110  12.5829680  24.3603130  46.2582080
  12.8522780  25.8324910  46.4863410   9.1954610  26.5272390  52.0776430
   8.3814450  26.9569550  52.3402220   9.6028810  27.1390800  51.4645480
  11.2580050  24.5820080  38.9776700  11.5328890  25.4898960  38.8495920
  11.0690790  24.5182610  39.9138690   7.6555660  17.6064930  40.2730330
   8.0740540  17.4195910  39.4326990   7.3491720  16.7543980  40.5833260
  11.1545390  22.5189070  43.9706130  10.7788990  21.7517000  43.5387420
  10.4248510  22.9011770  44.4581060  10.5445010  21.6660590  53.6045650
  10.3131100  21.4373340  52.7043600  10.8049560  22.5860140  53.5590540
   8.9833080  16.8917020  56.3825350   9.8603260  16.9000420  56.7659350
   8.9953920  16.1547860  55.7717700  10.4296350  20.7446560  47.2713370
  10.9533830  20.2509210  46.6403540  11.0155770  20.8796920  48.0160940
  10.6086070  20.8286430  50.7932920   9.6588780  20.7949970  50.9077910
  10.7899080  21.7386540  50.5582690   9.9196320  20.0019910  43.2105780
  10.4155440  19.7690780  43.9954660   9.7212390  19.1631750  42.7943420
  11.3483480  18.6380860  45.7443460  11.2382760  18.4836900  46.6825730
  12.1091070  18.1101800  45.5018870   9.6949200  14.5774990  52.2026460
  10.3321420  15.1909130  52.5685650   9.8424090  14.6135650  51.2575690
  12.2373750  16.4688780  38.9849600  13.1623060  16.3369960  38.7767890
  12.2149540  16.5481600  39.9386050  12.3112240  17.2399440  41.6106310
  11.5163740  17.1744560  42.1399220  12.5155520  18.1750080  41.5991660
   9.2530660  31.2790990  45.6044700   9.8489730  30.9575560  44.9279120
   9.5108810  30.8062810  46.3957970   3.0653680  15.7301180  55.1101560
   3.0042570  16.3223010  55.8596970   4.0054060  15.6227140  54.9651820
   5.7028240  15.3871240  54.7493850   6.3168650  15.7050530  54.0874930
   6.2477800  14.9019830  55.3689710  12.1203420  31.2862870  52.1555690
  11.6261700  31.6831740  51.4382820  11.5116710  30.6612080  52.5492970
   6.4436280  13.9503380  51.0763140   5.5696120  14.2838490  50.8736070
   6.3347030  13.4776560  51.9015010   7.3508260  16.1574250  52.4604860
   7.0221620  15.3426010  52.0806590   8.2990560  16.1144060  52.3370550
   9.8042870  31.9286290  49.4342430   9.3445840  32.6802100  49.0600450
   9.1755330  31.2092760  49.3757230   2.9734090  31.1283020  49.4359540
   3.2611900  30.8737320  48.5592550   3.4857310  30.5760380  50.0265110
   4.1911100  14.8673220  50.0156050   3.4082890  15.3418720  50.2952810
   3.8974030  13.9628050  49.9069230   8.7432170  15.5696320  48.0605140
   9.1840260  15.5141420  47.2126740   8.4739760  16.4854330  48.1315320
  10.6070740  15.2011560  46.0713960  10.5459140  14.2572780  45.9244980
  11.3862770  15.3091650  46.6167420   6.5790300  13.9502420  46.7655150
   7.1819670  14.5222630  47.2403670   5.8383290  14.5141860  46.5429050
   9.7224900  14.3523980  42.0395430   9.9175530  15.2507430  42.3062860
   8.9354770  14.1211060  42.5328380  11.2751510  31.5924690  43.8001990
  11.4503700  30.9062430  43.1562910  10.5773080  32.1171740  43.4078660
   5.7343670  22.1489920  27.5084830   5.6537720  21.2344530  27.2376540
   5.3208090  22.6456990  26.8024540   3.8661710  23.9268940  29.3894100
   3.0903810  23.4469380  29.6792670   4.5174640  23.2474590  29.2150260
   7.8869140  28.3329130  28.1693230   7.4250670  27.5616370  28.4980400
   8.6994690  28.3595200  28.6745680   4.1132450  30.6187140  27.7897220
   3.4943890  31.0744640  27.2191660   4.9684230  30.7738600  27.3886920
   3.3070700  26.6026130  29.3964260   3.2378980  25.6616070  29.2353390
   4.0690560  26.6927540  29.9686830   4.3375870  19.4096510  29.6233190
   4.7140690  18.5368390  29.5106860   4.2395380  19.7455210  28.7323630
   8.1199990  16.9046950  26.5561530   8.9409610  16.4143520  26.5987010
   8.1534070  17.4944610  27.3093370  12.4099540  18.9213700  33.1205160
  11.7051710  19.3095410  32.6020270  12.6757460  19.6163990  33.7226090
   4.9795800  25.5026380  25.1829130   4.3613070  25.9675830  24.6191850
   5.4919050  26.1953860  25.5998640   8.3561470  18.8447330  29.3289070
   7.6517040  19.1332220  29.9092180   8.7173630  19.6547440  28.9688630
   9.9724250  28.4622460  31.5916550   9.2887770  29.1321570  31.5833220
  10.5118540  28.6603110  30.8261410  11.4248390  18.2902120  29.7198280
  10.4773300  18.3241100  29.8513710  11.7498380  19.1041070  30.1047640
   7.5082990  30.3066590  30.3061730   7.5210150  29.9028880  29.4383990
   6.9558210  31.0813880  30.2023160   8.8028410  27.0282810  25.3951900
   8.6924740  26.0857140  25.5201320   8.7996660  27.3898450  26.2814660
   6.9068430  25.2096430  31.6344340   7.3237220  24.9956540  30.7997800
   7.6308250  25.4669220  32.2052960   4.3448690  22.6548130  24.7514390
   3.4177970  22.5885510  24.9802860   4.4973510  23.5928260  24.6369630
   4.3317770  18.9265130  21.7481550   3.3921440  19.0879090  21.8334010
   4.6501030  19.6450810  21.2017540  10.8530530  23.6083650  31.7260580
  10.0249160  23.6776740  31.2510710  11.4481010  24.1937960  31.2576410
   8.3745980  24.2168430  25.2549640   7.7558400  23.8787980  24.6075940
   8.3570430  23.5728190  25.9628830   7.8172540  20.3952970  32.6715450
   7.4043720  21.2206680  32.9255440   7.0848490  19.8098010  32.4791810
   8.5072640  30.4412300  33.3596430   8.0303200  31.2484490  33.1669040
   7.8234430  29.7890630  33.5122640   6.5510680  23.4555240  22.2622390
   6.9903960  22.6177670  22.1160210   7.2639100  24.0884640  22.3486530
   4.6606060  28.3951310  26.2303630   5.1001970  29.1375640  25.8159020
   4.5992950  28.6377880  27.1542590  10.1327820  14.7098050  20.5763430
   9.8200480  14.8024880  21.4762500  10.8940290  15.2879080  20.5260860
  12.0871850  30.2024240  38.4287820  12.5631570  30.6807130  39.1076900
  12.7079010  30.1341730  37.7033320  11.4905100  27.3937090  35.5887830
  11.6168160  27.1548970  34.6705010  11.5326480  26.5621630  36.0609910
   5.3521840  31.0965090  34.1582640   5.8666510  31.0073100  34.9605070
   4.5090920  31.4424790  34.4510550   7.3276240  31.3820430  23.5866640
   7.1677380  31.0923370  24.4848470   7.1622950  30.6060560  23.0511870
   7.0302370  28.8907990  22.1464640   6.3367530  28.8885280  21.4866920
   7.7725230  28.4667310  21.7158810   6.5952300  30.5170700  26.2213130
   7.0509250  29.7360080  26.5351750   6.9344820  31.2277520  26.7654310
  11.3429110  19.4469550  36.5537570  10.7273380  19.9549220  36.0253030
  11.0225530  18.5467880  36.4963510   3.4043430  18.2861440  34.0199760
   2.9422800  18.4944460  34.8319700   3.0021540  17.4720790  33.7170430
   8.4047940  19.5070390  35.1496420   7.5541530  19.2076140  35.4705490
   8.2449730  19.7512400  34.2380240   5.4997650  21.0072140  37.2495210
   5.8251060  20.1735890  36.9097440   6.2877980  21.5300660  37.3973540
   6.1385600  20.5489860  24.7436340   5.5394490  21.2725660  24.5599960
   6.6865210  20.4866640  23.9612790   4.7450470  19.1853400  26.7739620
   5.1380040  19.5025600  25.9608310   5.1067320  18.3065280  26.8884140
   3.0542640  17.9360710  38.0336480   2.3640960  17.7432910  38.6682570
   3.7974940  18.2195350  38.5660780   5.3305610  21.7759150  30.8690400
   4.5986730  22.2845960  31.2180500   4.9329950  20.9589130  30.5679180
   1.7683000  18.4513350  29.2742890   1.7719060  18.0103300  28.4247430
   2.6634120  18.7730680  29.3814710   5.7931520  17.2292830  30.2813340
   5.8104260  17.6801480  31.1255190   5.5447100  16.3298470  30.4946780
   9.2202270  14.6425010  36.1199720   9.5448040  13.9114670  36.6457700
   9.2558780  14.3238650  35.2180710   2.0690970  22.5115130  31.0208300
   2.4361100  22.0373700  31.7669640   1.8796030  23.3856700  31.3616640
   9.1460110  24.7550120  29.7285750   9.8659230  25.2505410  29.3381860
   8.9441930  24.0768010  29.0839620   4.6070050  16.1488080  23.8715140
   3.7934660  15.6501250  23.7960450   4.4132000  16.9886330  23.4551490
   4.5278910  24.8259180  35.6154750   4.4616220  23.9054850  35.3612340
   3.8984050  24.9234620  36.3299390   7.3218440  20.5207730  22.1677300
   8.2098060  20.8324960  21.9928640   7.2923530  19.6479980  21.7757880
   3.3179030  26.6931420  22.8465470   3.6594730  27.4373650  22.3508790
   2.4891740  27.0062540  23.2090300   4.4595640  27.6479750  35.3658550
   4.4740180  26.7160710  35.1477460   3.7520740  27.7339510  36.0048320
   9.5932710  21.8319570  21.6357160   9.5096430  22.2633790  20.7853600
  10.3126900  22.2917920  22.0683980  10.6706850  24.2887090  34.7127130
   9.9455040  24.8815870  34.5156520  11.1982310  24.2810630  33.9140500
  10.6219960  28.6861830  24.3639290   9.9796120  28.0317450  24.6383010
  10.2350620  29.0916920  23.5879960   6.2006440  26.0147260  28.2110980
   6.5530260  25.4175390  27.5512350   5.3168770  25.6891490  28.3819230
   3.8929540  29.2897320  32.4599050   4.5371760  29.4956700  33.1372470
   4.2558980  28.5285720  32.0069900   5.1661620  27.2929670  31.1776500
   5.8083850  26.5922830  31.2908670   5.6910970  28.0728110  30.9973390
   9.0117340  27.5778290  20.9015640   8.7854920  26.8608730  21.4940280
   8.6213540  27.3290730  20.0637390   6.9399240  28.0924570  34.3812560
   7.2755480  28.6791260  35.0590480   6.0199580  27.9617280  34.6110350
   8.5933590  25.4950230  22.5629800   8.3055290  25.9562920  23.3507680
   9.3885760  25.0348000  22.8314020   2.7687820  28.1415900  37.5500620
   2.4484690  27.4225140  38.0946310   2.0946180  28.8170970  37.6236680
   5.9841420  18.3742060  32.9137420   6.3522240  17.5537270  33.2416990
   5.1239620  18.4343950  33.3293070   9.3503450  17.3299000  23.7224980
   8.7216610  17.4344670  23.0083210   8.8555370  17.5495780  24.5118860
   3.7961590  29.0504590  21.1558960   3.8973570  28.8468580  20.2260940
   2.8963330  28.7962870  21.3606740   2.9443410  21.0281650  33.1375390
   3.4428660  21.5027470  33.8027240   3.0866360  20.1045170  33.3445420
   5.3502910  16.3335610  26.5778650   5.2270690  16.3521740  25.6288160
   6.2987470  16.3814550  26.6977050  10.1510270  17.2449610  33.9803780
   9.6483870  17.9855010  34.3197590  10.9666930  17.6333610  33.6640570
   8.4432280  22.4882790  27.4265140   7.5022420  22.5033020  27.6012830
   8.7576350  21.7018750  27.8725440  10.4457860  29.6591640  29.1019400
  10.5705280  30.4822810  29.5743210  11.3123420  29.4482370  28.7543550
   5.7598300  27.0448790  37.9097520   5.1536460  27.0680390  37.1693270
   5.4552410  26.3131830  38.4464770   7.1898670  30.7729080  36.5206930
   8.1420420  30.6887100  36.4707170   7.0426890  31.4370790  37.1940720
  10.0807870  30.1523290  22.0198840   9.7949380  29.7388430  21.2053020
   9.8827420  31.0811000  21.8999360   4.7857830  25.2076600  21.0646440
   4.2367930  25.6545900  21.7089180   5.4077090  24.7025850  21.5884110
   8.8392770  26.5618700  36.9968700   9.5802240  26.8994460  36.4936160
   8.0765450  26.7310760  36.4438470   2.9660590  23.1905130  20.2088840
   3.4866250  22.4754150  19.8429990   3.6128990  23.8291000  20.5089350
   7.5138430  24.6133530  35.5323910   7.9279450  24.7678610  36.3814330
   6.5789430  24.7388750  35.6949690   7.9860600  21.9529690  37.5363060
   8.5681370  21.1982010  37.4483540   8.1622370  22.4837130  36.7594540
   4.6117560  22.2970190  34.8857680   4.7313770  21.7011330  35.6252520
   5.4711560  22.3339880  34.4658980   6.9505460  22.8507380  33.4620190
   6.4240680  23.3750000  32.8585330   7.2936800  23.4834770  34.0929920
   6.1979760  18.4557350  36.3766520   5.5095280  17.7938890  36.3116510
   6.9185780  18.0095620  36.8214980   6.8280160  15.0508980  22.4356780
   7.1082450  14.2076880  22.7916200   6.0545890  15.2832090  22.9495530
   2.9823290  32.1058230  34.8764220   2.9081990  33.0093370  35.1836590
   2.0802130  31.7870130  34.8486290   3.5308620  31.2716740  22.4990580
   4.4259410  31.6101710  22.5209340   3.5626250  30.5496150  21.8714860
  10.5102970  29.8020410  35.2056780   9.9104960  29.8612970  34.4620700
  10.6396870  28.8625390  35.3353630  11.7504420  27.5438230  20.5426490
  10.9197380  27.6114880  21.0133720  11.9276250  28.4342350  20.2393350
  11.2060880  24.2885710  23.0460690  11.9679790  24.8582360  23.1520380
  11.2215250  23.7212910  23.8169000  12.2120850  25.1435810  27.8902620
  12.5829680  24.3603130  27.4838590  12.8522780  25.8324910  27.7119920
   9.1954610  26.5272390  33.3032940   8.3814450  26.9569550  33.5658730
   9.6028810  27.1390800  32.6901990  11.2580050  24.5820080  20.2033210
  11.5328890  25.4898960  20.0752430  11.0690790  24.5182610  21.1395200
   7.6555660  17.6064930  21.4986840   8.0740540  17.4195910  20.6583500
   7.3491720  16.7543980  21.8089770  11.1545390  22.5189070  25.1962640
  10.7788990  21.7517000  24.7643930  10.4248510  22.9011770  25.6837570
  10.5445010  21.6660590  34.8302160  10.3131100  21.4373340  33.9300110
  10.8049560  22.5860140  34.7847050   8.9833080  16.8917020  37.6081860
   9.8603260  16.9000420  37.9915860   8.9953920  16.1547860  36.9974210
  10.4296350  20.7446560  28.4969880  10.9533830  20.2509210  27.8660050
  11.0155770  20.8796920  29.2417450  10.6086070  20.8286430  32.0189430
   9.6588780  20.7949970  32.1334420  10.7899080  21.7386540  31.7839200
   9.9196320  20.0019910  24.4362290  10.4155440  19.7690780  25.2211170
   9.7212390  19.1631750  24.0199930  11.3483480  18.6380860  26.9699970
  11.2382760  18.4836900  27.9082240  12.1091070  18.1101800  26.7275380
   9.6949200  14.5774990  33.4282970  10.3321420  15.1909130  33.7942160
   9.8424090  14.6135650  32.4832200  12.2373750  16.4688780  20.2106110
  13.1623060  16.3369960  20.0024400  12.2149540  16.5481600  21.1642560
  12.3112240  17.2399440  22.8362820  11.5163740  17.1744560  23.3655730
  12.5155520  18.1750080  22.8248170   9.2530660  31.2790990  26.8301210
   9.8489730  30.9575560  26.1535630   9.5108810  30.8062810  27.6214480
   3.0653680  15.7301180  36.3358070   3.0042570  16.3223010  37.0853480
   4.0054060  15.6227140  36.1908330   5.7028240  15.3871240  35.9750360
   6.3168650  15.7050530  35.3131440   6.2477800  14.9019830  36.5946220
  12.1203420  31.2862870  33.3812200  11.6261700  31.6831740  32.6639330
  11.5116710  30.6612080  33.7749480   6.4436280  13.9503380  32.3019650
   5.5696120  14.2838490  32.0992580   6.3347030  13.4776560  33.1271520
   7.3508260  16.1574250  33.6861370   7.0221620  15.3426010  33.3063100
   8.2990560  16.1144060  33.5627060   9.8042870  31.9286290  30.6598940
   9.3445840  32.6802100  30.2856960   9.1755330  31.2092760  30.6013740
   2.9734090  31.1283020  30.6616050   3.2611900  30.8737320  29.7849060
   3.4857310  30.5760380  31.2521620   4.1911100  14.8673220  31.2412560
   3.4082890  15.3418720  31.5209320   3.8974030  13.9628050  31.1325740
   8.7432170  15.5696320  29.2861650   9.1840260  15.5141420  28.4383250
   8.4739760  16.4854330  29.3571830  10.6070740  15.2011560  27.2970470
  10.5459140  14.2572780  27.1501490  11.3862770  15.3091650  27.8423930
   6.5790300  13.9502420  27.9911660   7.1819670  14.5222630  28.4660180
   5.8383290  14.5141860  27.7685560   9.7224900  14.3523980  23.2651940
   9.9175530  15.2507430  23.5319370   8.9354770  14.1211060  23.7584890
   3.0406450  32.0499120  38.0284250   3.9673760  31.8143390  38.0720210
   3.0256880  32.8771120  37.5470280  11.2751510  31.5924690  25.0258500
  11.4503700  30.9062430  24.3819420  10.5773080  32.1171740  24.6335170
   6.8285520  14.1297450  38.3706600   6.7150970  14.4492060  39.2658120
   7.6455260  14.5309960  38.0743880   9.6084010  31.2768980  37.8525290
  10.4009330  30.7818210  37.6451250   9.9017160  31.9559120  38.4600900
   5.7343670  22.1489920   8.7341340   5.6537720  21.2344530   8.4633050
   5.3208090  22.6456990   8.0281050   3.8661710  23.9268940  10.6150610
   3.0903810  23.4469380  10.9049180   4.5174640  23.2474590  10.4406770
   7.8869140  28.3329130   9.3949740   7.4250670  27.5616370   9.7236910
   8.6994690  28.3595200   9.9002190   4.1132450  30.6187140   9.0153730
   3.4943890  31.0744640   8.4448170   4.9684230  30.7738600   8.6143430
   3.3070700  26.6026130  10.6220770   3.2378980  25.6616070  10.4609900
   4.0690560  26.6927540  11.1943340   4.3375870  19.4096510  10.8489700
   4.7140690  18.5368390  10.7363370   4.2395380  19.7455210   9.9580140
   8.1199990  16.9046950   7.7818040   8.9409610  16.4143520   7.8243520
   8.1534070  17.4944610   8.5349880  12.4099540  18.9213700  14.3461670
  11.7051710  19.3095410  13.8276780  12.6757460  19.6163990  14.9482600
   4.9795800  25.5026380   6.4085640   4.3613070  25.9675830   5.8448360
   5.4919050  26.1953860   6.8255150   8.3561470  18.8447330  10.5545580
   7.6517040  19.1332220  11.1348690   8.7173630  19.6547440  10.1945140
   9.9724250  28.4622460  12.8173060   9.2887770  29.1321570  12.8089730
  10.5118540  28.6603110  12.0517920  11.4248390  18.2902120  10.9454790
  10.4773300  18.3241100  11.0770220  11.7498380  19.1041070  11.3304150
   7.5082990  30.3066590  11.5318240   7.5210150  29.9028880  10.6640500
   6.9558210  31.0813880  11.4279670   8.8028410  27.0282810   6.6208410
   8.6924740  26.0857140   6.7457830   8.7996660  27.3898450   7.5071170
   6.9068430  25.2096430  12.8600850   7.3237220  24.9956540  12.0254310
   7.6308250  25.4669220  13.4309470   4.3448690  22.6548130   5.9770900
   3.4177970  22.5885510   6.2059370   4.4973510  23.5928260   5.8626140
   4.3317770  18.9265130   2.9738060   3.3921440  19.0879090   3.0590520
   4.6501030  19.6450810   2.4274050  10.8530530  23.6083650  12.9517090
  10.0249160  23.6776740  12.4767220  11.4481010  24.1937960  12.4832920
   8.3745980  24.2168430   6.4806150   7.7558400  23.8787980   5.8332450
   8.3570430  23.5728190   7.1885340   7.8172540  20.3952970  13.8971960
   7.4043720  21.2206680  14.1511950   7.0848490  19.8098010  13.7048320
   8.5072640  30.4412300  14.5852940   8.0303200  31.2484490  14.3925550
   7.8234430  29.7890630  14.7379150   6.5510680  23.4555240   3.4878900
   6.9903960  22.6177670   3.3416720   7.2639100  24.0884640   3.5743040
   4.6606060  28.3951310   7.4560140   5.1001970  29.1375640   7.0415530
   4.5992950  28.6377880   8.3799100  10.1327820  14.7098050   1.8019940
   9.8200480  14.8024880   2.7019010  10.8940290  15.2879080   1.7517370
  12.0871850  30.2024240  19.6544330  12.5631570  30.6807130  20.3333410
  12.7079010  30.1341730  18.9289830  11.4905100  27.3937090  16.8144340
  11.6168160  27.1548970  15.8961520  11.5326480  26.5621630  17.2866420
   5.3521840  31.0965090  15.3839150   5.8666510  31.0073100  16.1861580
   4.5090920  31.4424790  15.6767060   7.3276240  31.3820430   4.8123150
   7.1677380  31.0923370   5.7104980   7.1622950  30.6060560   4.2768380
   7.0302370  28.8907990   3.3721150   6.3367530  28.8885280   2.7123430
   7.7725230  28.4667310   2.9415320   6.5952300  30.5170700   7.4469640
   7.0509250  29.7360080   7.7608260   6.9344820  31.2277520   7.9910820
  11.3429110  19.4469550  17.7794080  10.7273380  19.9549220  17.2509540
  11.0225530  18.5467880  17.7220020   3.4043430  18.2861440  15.2456270
   2.9422800  18.4944460  16.0576210   3.0021540  17.4720790  14.9426940
   8.4047940  19.5070390  16.3752930   7.5541530  19.2076140  16.6962000
   8.2449730  19.7512400  15.4636750   5.4997650  21.0072140  18.4751720
   5.8251060  20.1735890  18.1353950   6.2877980  21.5300660  18.6230050
   6.1385600  20.5489860   5.9692850   5.5394490  21.2725660   5.7856470
   6.6865210  20.4866640   5.1869300   4.7450470  19.1853400   7.9996130
   5.1380040  19.5025600   7.1864820   5.1067320  18.3065280   8.1140650
   3.0542640  17.9360710  19.2592990   2.3640960  17.7432910  19.8939080
   3.7974940  18.2195350  19.7917290   5.3305610  21.7759150  12.0946910
   4.5986730  22.2845960  12.4437010   4.9329950  20.9589130  11.7935690
   1.7683000  18.4513350  10.4999400   1.7719060  18.0103300   9.6503940
   2.6634120  18.7730680  10.6071220   5.7931520  17.2292830  11.5069850
   5.8104260  17.6801480  12.3511700   5.5447100  16.3298470  11.7203290
   9.2202270  14.6425010  17.3456230   9.5448040  13.9114670  17.8714210
   9.2558780  14.3238650  16.4437220   2.0690970  22.5115130  12.2464810
   2.4361100  22.0373700  12.9926150   1.8796030  23.3856700  12.5873150
   9.1460110  24.7550120  10.9542260   9.8659230  25.2505410  10.5638370
   8.9441930  24.0768010  10.3096130   4.6070050  16.1488080   5.0971650
   3.7934660  15.6501250   5.0216960   4.4132000  16.9886330   4.6808000
   4.5278910  24.8259180  16.8411260   4.4616220  23.9054850  16.5868850
   3.8984050  24.9234620  17.5555900   7.3218440  20.5207730   3.3933810
   8.2098060  20.8324960   3.2185150   7.2923530  19.6479980   3.0014390
   3.3179030  26.6931420   4.0721980   3.6594730  27.4373650   3.5765300
   2.4891740  27.0062540   4.4346810   4.4595640  27.6479750  16.5915060
   4.4740180  26.7160710  16.3733970   3.7520740  27.7339510  17.2304830
   9.5932710  21.8319570   2.8613670   9.5096430  22.2633790   2.0110110
  10.3126900  22.2917920   3.2940490  10.6706850  24.2887090  15.9383640
   9.9455040  24.8815870  15.7413030  11.1982310  24.2810630  15.1397010
  10.6219960  28.6861830   5.5895800   9.9796120  28.0317450   5.8639520
  10.2350620  29.0916920   4.8136470   6.2006440  26.0147260   9.4367490
   6.5530260  25.4175390   8.7768860   5.3168770  25.6891490   9.6075740
   3.8929540  29.2897320  13.6855560   4.5371760  29.4956700  14.3628980
   4.2558980  28.5285720  13.2326410   5.1661620  27.2929670  12.4033010
   5.8083850  26.5922830  12.5165180   5.6910970  28.0728110  12.2229900
   6.9399240  28.0924570  15.6069070   7.2755480  28.6791260  16.2846990
   6.0199580  27.9617280  15.8366860   8.5933590  25.4950230   3.7886310
   8.3055290  25.9562920   4.5764190   9.3885760  25.0348000   4.0570530
   2.7687820  28.1415900  18.7757130   2.4484690  27.4225140  19.3202820
   2.0946180  28.8170970  18.8493190   5.9841420  18.3742060  14.1393930
   6.3522240  17.5537270  14.4673500   5.1239620  18.4343950  14.5549580
   9.3503450  17.3299000   4.9481490   8.7216610  17.4344670   4.2339720
   8.8555370  17.5495780   5.7375370   3.7961590  29.0504590   2.3815470
   3.8973570  28.8468580   1.4517450   2.8963330  28.7962870   2.5863250
   2.9443410  21.0281650  14.3631900   3.4428660  21.5027470  15.0283750
   3.0866360  20.1045170  14.5701930   5.3502910  16.3335610   7.8035160
   5.2270690  16.3521740   6.8544670   6.2987470  16.3814550   7.9233560
  10.1510270  17.2449610  15.2060290   9.6483870  17.9855010  15.5454100
  10.9666930  17.6333610  14.8897080   8.4432280  22.4882790   8.6521650
   7.5022420  22.5033020   8.8269340   8.7576350  21.7018750   9.0981950
  10.4457860  29.6591640  10.3275910  10.5705280  30.4822810  10.7999720
  11.3123420  29.4482370   9.9800060   5.7598300  27.0448790  19.1354030
   5.1536460  27.0680390  18.3949780   5.4552410  26.3131830  19.6721280
   7.1898670  30.7729080  17.7463440   8.1420420  30.6887100  17.6963680
   7.0426890  31.4370790  18.4197230  10.0807870  30.1523290   3.2455350
   9.7949380  29.7388430   2.4309530   9.8827420  31.0811000   3.1255870
   4.7857830  25.2076600   2.2902950   4.2367930  25.6545900   2.9345690
   5.4077090  24.7025850   2.8140620   8.8392770  26.5618700  18.2225210
   9.5802240  26.8994460  17.7192670   8.0765450  26.7310760  17.6694980
   7.5138430  24.6133530  16.7580420   7.9279450  24.7678610  17.6070840
   6.5789430  24.7388750  16.9206200   7.9860600  21.9529690  18.7619570
   8.5681370  21.1982010  18.6740050   8.1622370  22.4837130  17.9851050
   4.6117560  22.2970190  16.1114190   4.7313770  21.7011330  16.8509030
   5.4711560  22.3339880  15.6915490   6.9505460  22.8507380  14.6876700
   6.4240680  23.3750000  14.0841840   7.2936800  23.4834770  15.3186430
   6.1979760  18.4557350  17.6023030   5.5095280  17.7938890  17.5373020
   6.9185780  18.0095620  18.0471490   6.8280160  15.0508980   3.6613290
   7.1082450  14.2076880   4.0172710   6.0545890  15.2832090   4.1752040
   2.9823290  32.1058230  16.1020730   2.9081990  33.0093370  16.4093100
   2.0802130  31.7870130  16.0742800   3.5308620  31.2716740   3.7247090
   4.4259410  31.6101710   3.7465850   3.5626250  30.5496150   3.0971370
  10.5102970  29.8020410  16.4313290   9.9104960  29.8612970  15.6877210
  10.6396870  28.8625390  16.5610140  11.7504420  27.5438230   1.7683000
  10.9197380  27.6114880   2.2390230  11.9276250  28.4342350   1.4649860
  11.2060880  24.2885710   4.2717200  11.9679790  24.8582360   4.3776890
  11.2215250  23.7212910   5.0425510  12.2120850  25.1435810   9.1159130
  12.5829680  24.3603130   8.7095100  12.8522780  25.8324910   8.9376430
   9.1954610  26.5272390  14.5289450   8.3814450  26.9569550  14.7915240
   9.6028810  27.1390800  13.9158500   7.6555660  17.6064930   2.7243350
   8.0740540  17.4195910   1.8840010   7.3491720  16.7543980   3.0346280
  11.1545390  22.5189070   6.4219150  10.7788990  21.7517000   5.9900440
  10.4248510  22.9011770   6.9094080  10.5445010  21.6660590  16.0558670
  10.3131100  21.4373340  15.1556620  10.8049560  22.5860140  16.0103560
   8.9833080  16.8917020  18.8338370   9.8603260  16.9000420  19.2172370
   8.9953920  16.1547860  18.2230720  10.4296350  20.7446560   9.7226390
  10.9533830  20.2509210   9.0916560  11.0155770  20.8796920  10.4673960
  10.6086070  20.8286430  13.2445940   9.6588780  20.7949970  13.3590930
  10.7899080  21.7386540  13.0095710   9.9196320  20.0019910   5.6618800
  10.4155440  19.7690780   6.4467680   9.7212390  19.1631750   5.2456440
  11.3483480  18.6380860   8.1956480  11.2382760  18.4836900   9.1338750
  12.1091070  18.1101800   7.9531890   9.6949200  14.5774990  14.6539480
  10.3321420  15.1909130  15.0198670   9.8424090  14.6135650  13.7088710
  12.3112240  17.2399440   4.0619330  11.5163740  17.1744560   4.5912240
  12.5155520  18.1750080   4.0504680   9.2530660  31.2790990   8.0557720
   9.8489730  30.9575560   7.3792140   9.5108810  30.8062810   8.8470990
   3.0653680  15.7301180  17.5614580   3.0042570  16.3223010  18.3109990
   4.0054060  15.6227140  17.4164840   5.7028240  15.3871240  17.2006870
   6.3168650  15.7050530  16.5387950   6.2477800  14.9019830  17.8202730
  12.1203420  31.2862870  14.6068710  11.6261700  31.6831740  13.8895840
  11.5116710  30.6612080  15.0005990   6.4436280  13.9503380  13.5276160
   5.5696120  14.2838490  13.3249090   6.3347030  13.4776560  14.3528030
   7.3508260  16.1574250  14.9117880   7.0221620  15.3426010  14.5319610
   8.2990560  16.1144060  14.7883570   9.8042870  31.9286290  11.8855450
   9.3445840  32.6802100  11.5113470   9.1755330  31.2092760  11.8270250
   2.9734090  31.1283020  11.8872560   3.2611900  30.8737320  11.0105570
   3.4857310  30.5760380  12.4778130   4.1911100  14.8673220  12.4669070
   3.4082890  15.3418720  12.7465830   3.8974030  13.9628050  12.3582250
   8.7432170  15.5696320  10.5118160   9.1840260  15.5141420   9.6639760
   8.4739760  16.4854330  10.5828340  10.6070740  15.2011560   8.5226980
  10.5459140  14.2572780   8.3758000  11.3862770  15.3091650   9.0680440
   6.5790300  13.9502420   9.2168170   7.1819670  14.5222630   9.6916690
   5.8383290  14.5141860   8.9942070   9.7224900  14.3523980   4.4908450
   9.9175530  15.2507430   4.7575880   8.9354770  14.1211060   4.9841400
   3.0406450  32.0499120  19.2540760   3.9673760  31.8143390  19.2976720
   3.0256880  32.8771120  18.7726790  11.2751510  31.5924690   6.2515010
  11.4503700  30.9062430   5.6075930  10.5773080  32.1171740   5.8591680
   6.8285520  14.1297450  19.5963110   6.7150970  14.4492060  20.4914630
   7.6455260  14.5309960  19.3000390   9.6084010  31.2768980  19.0781800
  10.4009330  30.7818210  18.8707760   9.9017160  31.9559120  19.6857410
   5.7343670   3.3746430  46.2828320   5.6537720   2.4601040  46.0120030
   5.3208090   3.8713500  45.5768030   3.8661710   5.1525450  48.1637590
   3.0903810   4.6725890  48.4536160   4.5174640   4.4731100  47.9893750
   7.8869140   9.5585640  46.9436720   7.4250670   8.7872880  47.2723890
   8.6994690   9.5851710  47.4489170   4.1132450  11.8443650  46.5640710
   3.4943890  12.3001150  45.9935150   4.9684230  11.9995110  46.1630410
   3.3070700   7.8282640  48.1707750   3.2378980   6.8872580  48.0096880
   4.0690560   7.9184050  48.7430320   4.9795800   6.7282890  43.9572620
   4.3613070   7.1932340  43.3935340   5.4919050   7.4210370  44.3742130
   9.9724250   9.6878970  50.3660040   9.2887770  10.3578080  50.3576710
  10.5118540   9.8859620  49.6004900   7.5082990  11.5323100  49.0805220
   7.5210150  11.1285390  48.2127480   6.9558210  12.3070390  48.9766650
   8.8028410   8.2539320  44.1695390   8.6924740   7.3113650  44.2944810
   8.7996660   8.6154960  45.0558150   6.9068430   6.4352940  50.4087830
   7.3237220   6.2213050  49.5741290   7.6308250   6.6925730  50.9796450
   4.3448690   3.8804640  43.5257880   3.4177970   3.8142020  43.7546350
   4.4973510   4.8184770  43.4113120  10.8530530   4.8340160  50.5004070
  10.0249160   4.9033250  50.0254200  11.4481010   5.4194470  50.0319900
   8.3745980   5.4424940  44.0293130   7.7558400   5.1044490  43.3819430
   8.3570430   4.7984700  44.7372320   8.5072640  11.6668810  52.1339920
   8.0303200  12.4741000  51.9412530   7.8234430  11.0147140  52.2866130
   6.5510680   4.6811750  41.0365880   6.9903960   3.8434180  40.8903700
   7.2639100   5.3141150  41.1230020   4.6606060   9.6207820  45.0047120
   5.1001970  10.3632150  44.5902510   4.5992950   9.8634390  45.9286080
  11.4905100   8.6193600  54.3631320  11.6168160   8.3805480  53.4448500
  11.5326480   7.7878140  54.8353400   5.3521840  12.3221600  52.9326130
   5.8666510  12.2329610  53.7348560   4.5090920  12.6681300  53.2254040
   7.3276240  12.6076940  42.3610130   7.1677380  12.3179880  43.2591960
   7.1622950  11.8317070  41.8255360   7.0302370  10.1164500  40.9208130
   6.3367530  10.1141790  40.2610410   7.7725230   9.6923820  40.4902300
   6.5952300  11.7427210  44.9956620   7.0509250  10.9616590  45.3095240
   6.9344820  12.4534030  45.5397800   5.4997650   2.2328650  56.0238700
   5.8251060   1.3992400  55.6840930   6.2877980   2.7557170  56.1717030
   6.1385600   1.7746370  43.5179830   5.5394490   2.4982170  43.3343450
   6.6865210   1.7123150  42.7356280   5.3305610   3.0015660  49.6433890
   4.5986730   3.5102470  49.9923990   4.9329950   2.1845640  49.3422670
   2.0690970   3.7371640  49.7951790   2.4361100   3.2630210  50.5413130
   1.8796030   4.6113210  50.1360130   9.1460110   5.9806630  48.5029240
   9.8659230   6.4761920  48.1125350   8.9441930   5.3024520  47.8583110
   4.5278910   6.0515690  54.3898240   4.4616220   5.1311360  54.1355830
   3.8984050   6.1491130  55.1042880   3.3179030   7.9187930  41.6208960
   3.6594730   8.6630160  41.1252280   2.4891740   8.2319050  41.9833790
   4.4595640   8.8736260  54.1402040   4.4740180   7.9417220  53.9220950
   3.7520740   8.9596020  54.7791810   9.5932710   3.0576080  40.4100650
   9.5096430   3.4890300  39.5597090  10.3126900   3.5174430  40.8427470
  10.6706850   5.5143600  53.4870620   9.9455040   6.1072380  53.2900010
  11.1982310   5.5067140  52.6883990  10.6219960   9.9118340  43.1382780
   9.9796120   9.2573960  43.4126500  10.2350620  10.3173430  42.3623450
   6.2006440   7.2403770  46.9854470   6.5530260   6.6431900  46.3255840
   5.3168770   6.9148000  47.1562720   3.8929540  10.5153830  51.2342540
   4.5371760  10.7213210  51.9115960   4.2558980   9.7542230  50.7813390
   5.1661620   8.5186180  49.9519990   5.8083850   7.8179340  50.0652160
   5.6910970   9.2984620  49.7716880   9.0117340   8.8034800  39.6759130
   8.7854920   8.0865240  40.2683770   8.6213540   8.5547240  38.8380880
   6.9399240   9.3181080  53.1556050   7.2755480   9.9047770  53.8333970
   6.0199580   9.1873790  53.3853840   8.5933590   6.7206740  41.3373290
   8.3055290   7.1819430  42.1251170   9.3885760   6.2604510  41.6057510
   3.7961590  10.2761100  39.9302450   3.8973570  10.0725090  39.0004430
   2.8963330  10.0219380  40.1350230   8.4432280   3.7139300  46.2008630
   7.5022420   3.7289530  46.3756320   8.7576350   2.9275260  46.6468930
  10.4457860  10.8848150  47.8762890  10.5705280  11.7079320  48.3486700
  11.3123420  10.6738880  47.5287040   7.1898670  11.9985590  55.2950420
   8.1420420  11.9143610  55.2450660   7.0426890  12.6627300  55.9684210
  10.0807870  11.3779800  40.7942330   9.7949380  10.9644940  39.9796510
   9.8827420  12.3067510  40.6742850   4.7857830   6.4333110  39.8389930
   4.2367930   6.8802410  40.4832670   5.4077090   5.9282360  40.3627600
   8.8392770   7.7875210  55.7712190   9.5802240   8.1250970  55.2679650
   8.0765450   7.9567270  55.2181960   2.9660590   4.4161640  38.9832330
   3.4866250   3.7010660  38.6173480   3.6128990   5.0547510  39.2832840
   7.5138430   5.8390040  54.3067400   7.9279450   5.9935120  55.1557820
   6.5789430   5.9645260  54.4693180   7.9860600   3.1786200  56.3106550
   8.5681370   2.4238520  56.2227030   8.1622370   3.7093640  55.5338030
   4.6117560   3.5226700  53.6601170   4.7313770   2.9267840  54.3996010
   5.4711560   3.5596390  53.2402470   6.9505460   4.0763890  52.2363680
   6.4240680   4.6006510  51.6328820   7.2936800   4.7091280  52.8673410
   2.9823290  13.3314740  53.6507710   2.9081990  14.2349880  53.9580080
   2.0802130  13.0126640  53.6229780   3.5308620  12.4973250  41.2734070
   4.4259410  12.8358220  41.2952830   3.5626250  11.7752660  40.6458350
  10.5102970  11.0276920  53.9800270   9.9104960  11.0869480  53.2364190
  10.6396870  10.0881900  54.1097120  11.7504420   8.7694740  39.3169980
  10.9197380   8.8371390  39.7877210  11.9276250   9.6598860  39.0136840
  11.2060880   5.5142220  41.8204180  11.9679790   6.0838870  41.9263870
  11.2215250   4.9469420  42.5912490  12.2120850   6.3692320  46.6646110
  12.5829680   5.5859640  46.2582080  12.8522780   7.0581420  46.4863410
   9.1954610   7.7528900  52.0776430   8.3814450   8.1826060  52.3402220
   9.6028810   8.3647310  51.4645480  11.2580050   5.8076590  38.9776700
  11.5328890   6.7155470  38.8495920  11.0690790   5.7439120  39.9138690
  11.1545390   3.7445580  43.9706130  10.7788990   2.9773510  43.5387420
  10.4248510   4.1268280  44.4581060  10.5445010   2.8917100  53.6045650
  10.3131100   2.6629850  52.7043600  10.8049560   3.8116650  53.5590540
  10.4296350   1.9703070  47.2713370  10.9533830   1.4765720  46.6403540
  11.0155770   2.1053430  48.0160940  10.6086070   2.0542940  50.7932920
   9.6588780   2.0206480  50.9077910  10.7899080   2.9643050  50.5582690
   9.2530660  12.5047500  45.6044700   9.8489730  12.1832070  44.9279120
   9.5108810  12.0319320  46.3957970  12.1203420  12.5119380  52.1555690
  11.6261700  12.9088250  51.4382820  11.5116710  11.8868590  52.5492970
   9.8042870  13.1542800  49.4342430   9.3445840  13.9058610  49.0600450
   9.1755330  12.4349270  49.3757230   2.9734090  12.3539530  49.4359540
   3.2611900  12.0993830  48.5592550   3.4857310  11.8016890  50.0265110
  11.2751510  12.8181200  43.8001990  11.4503700  12.1318940  43.1562910
  10.5773080  13.3428250  43.4078660   5.7343670   3.3746430  27.5084830
   5.6537720   2.4601040  27.2376540   5.3208090   3.8713500  26.8024540
   3.8661710   5.1525450  29.3894100   3.0903810   4.6725890  29.6792670
   4.5174640   4.4731100  29.2150260   7.8869140   9.5585640  28.1693230
   7.4250670   8.7872880  28.4980400   8.6994690   9.5851710  28.6745680
   4.1132450  11.8443650  27.7897220   3.4943890  12.3001150  27.2191660
   4.9684230  11.9995110  27.3886920   3.3070700   7.8282640  29.3964260
   3.2378980   6.8872580  29.2353390   4.0690560   7.9184050  29.9686830
   4.9795800   6.7282890  25.1829130   4.3613070   7.1932340  24.6191850
   5.4919050   7.4210370  25.5998640   9.9724250   9.6878970  31.5916550
   9.2887770  10.3578080  31.5833220  10.5118540   9.8859620  30.8261410
   7.5082990  11.5323100  30.3061730   7.5210150  11.1285390  29.4383990
   6.9558210  12.3070390  30.2023160   8.8028410   8.2539320  25.3951900
   8.6924740   7.3113650  25.5201320   8.7996660   8.6154960  26.2814660
   6.9068430   6.4352940  31.6344340   7.3237220   6.2213050  30.7997800
   7.6308250   6.6925730  32.2052960   4.3448690   3.8804640  24.7514390
   3.4177970   3.8142020  24.9802860   4.4973510   4.8184770  24.6369630
  10.8530530   4.8340160  31.7260580  10.0249160   4.9033250  31.2510710
  11.4481010   5.4194470  31.2576410   8.3745980   5.4424940  25.2549640
   7.7558400   5.1044490  24.6075940   8.3570430   4.7984700  25.9628830
   8.5072640  11.6668810  33.3596430   8.0303200  12.4741000  33.1669040
   7.8234430  11.0147140  33.5122640   6.5510680   4.6811750  22.2622390
   6.9903960   3.8434180  22.1160210   7.2639100   5.3141150  22.3486530
   4.6606060   9.6207820  26.2303630   5.1001970  10.3632150  25.8159020
   4.5992950   9.8634390  27.1542590  12.0871850  11.4280750  38.4287820
  12.5631570  11.9063640  39.1076900  12.7079010  11.3598240  37.7033320
  11.4905100   8.6193600  35.5887830  11.6168160   8.3805480  34.6705010
  11.5326480   7.7878140  36.0609910   5.3521840  12.3221600  34.1582640
   5.8666510  12.2329610  34.9605070   4.5090920  12.6681300  34.4510550
   7.3276240  12.6076940  23.5866640   7.1677380  12.3179880  24.4848470
   7.1622950  11.8317070  23.0511870   7.0302370  10.1164500  22.1464640
   6.3367530  10.1141790  21.4866920   7.7725230   9.6923820  21.7158810
   6.5952300  11.7427210  26.2213130   7.0509250  10.9616590  26.5351750
   6.9344820  12.4534030  26.7654310   5.4997650   2.2328650  37.2495210
   5.8251060   1.3992400  36.9097440   6.2877980   2.7557170  37.3973540
   6.1385600   1.7746370  24.7436340   5.5394490   2.4982170  24.5599960
   6.6865210   1.7123150  23.9612790   5.3305610   3.0015660  30.8690400
   4.5986730   3.5102470  31.2180500   4.9329950   2.1845640  30.5679180
   2.0690970   3.7371640  31.0208300   2.4361100   3.2630210  31.7669640
   1.8796030   4.6113210  31.3616640   9.1460110   5.9806630  29.7285750
   9.8659230   6.4761920  29.3381860   8.9441930   5.3024520  29.0839620
   4.5278910   6.0515690  35.6154750   4.4616220   5.1311360  35.3612340
   3.8984050   6.1491130  36.3299390   3.3179030   7.9187930  22.8465470
   3.6594730   8.6630160  22.3508790   2.4891740   8.2319050  23.2090300
   4.4595640   8.8736260  35.3658550   4.4740180   7.9417220  35.1477460
   3.7520740   8.9596020  36.0048320   9.5932710   3.0576080  21.6357160
   9.5096430   3.4890300  20.7853600  10.3126900   3.5174430  22.0683980
  10.6706850   5.5143600  34.7127130   9.9455040   6.1072380  34.5156520
  11.1982310   5.5067140  33.9140500  10.6219960   9.9118340  24.3639290
   9.9796120   9.2573960  24.6383010  10.2350620  10.3173430  23.5879960
   6.2006440   7.2403770  28.2110980   6.5530260   6.6431900  27.5512350
   5.3168770   6.9148000  28.3819230   3.8929540  10.5153830  32.4599050
   4.5371760  10.7213210  33.1372470   4.2558980   9.7542230  32.0069900
   5.1661620   8.5186180  31.1776500   5.8083850   7.8179340  31.2908670
   5.6910970   9.2984620  30.9973390   9.0117340   8.8034800  20.9015640
   8.7854920   8.0865240  21.4940280   8.6213540   8.5547240  20.0637390
   6.9399240   9.3181080  34.3812560   7.2755480   9.9047770  35.0590480
   6.0199580   9.1873790  34.6110350   8.5933590   6.7206740  22.5629800
   8.3055290   7.1819430  23.3507680   9.3885760   6.2604510  22.8314020
   2.7687820   9.3672410  37.5500620   2.4484690   8.6481650  38.0946310
   2.0946180  10.0427480  37.6236680   3.7961590  10.2761100  21.1558960
   3.8973570  10.0725090  20.2260940   2.8963330  10.0219380  21.3606740
   8.4432280   3.7139300  27.4265140   7.5022420   3.7289530  27.6012830
   8.7576350   2.9275260  27.8725440  10.4457860  10.8848150  29.1019400
  10.5705280  11.7079320  29.5743210  11.3123420  10.6738880  28.7543550
   5.7598300   8.2705300  37.9097520   5.1536460   8.2936900  37.1693270
   5.4552410   7.5388340  38.4464770   7.1898670  11.9985590  36.5206930
   8.1420420  11.9143610  36.4707170   7.0426890  12.6627300  37.1940720
  10.0807870  11.3779800  22.0198840   9.7949380  10.9644940  21.2053020
   9.8827420  12.3067510  21.8999360   4.7857830   6.4333110  21.0646440
   4.2367930   6.8802410  21.7089180   5.4077090   5.9282360  21.5884110
   8.8392770   7.7875210  36.9968700   9.5802240   8.1250970  36.4936160
   8.0765450   7.9567270  36.4438470   2.9660590   4.4161640  20.2088840
   3.4866250   3.7010660  19.8429990   3.6128990   5.0547510  20.5089350
   7.5138430   5.8390040  35.5323910   7.9279450   5.9935120  36.3814330
   6.5789430   5.9645260  35.6949690   7.9860600   3.1786200  37.5363060
   8.5681370   2.4238520  37.4483540   8.1622370   3.7093640  36.7594540
   4.6117560   3.5226700  34.8857680   4.7313770   2.9267840  35.6252520
   5.4711560   3.5596390  34.4658980   6.9505460   4.0763890  33.4620190
   6.4240680   4.6006510  32.8585330   7.2936800   4.7091280  34.0929920
   2.9823290  13.3314740  34.8764220   2.9081990  14.2349880  35.1836590
   2.0802130  13.0126640  34.8486290   3.5308620  12.4973250  22.4990580
   4.4259410  12.8358220  22.5209340   3.5626250  11.7752660  21.8714860
  10.5102970  11.0276920  35.2056780   9.9104960  11.0869480  34.4620700
  10.6396870  10.0881900  35.3353630  11.7504420   8.7694740  20.5426490
  10.9197380   8.8371390  21.0133720  11.9276250   9.6598860  20.2393350
  11.2060880   5.5142220  23.0460690  11.9679790   6.0838870  23.1520380
  11.2215250   4.9469420  23.8169000  12.2120850   6.3692320  27.8902620
  12.5829680   5.5859640  27.4838590  12.8522780   7.0581420  27.7119920
   9.1954610   7.7528900  33.3032940   8.3814450   8.1826060  33.5658730
   9.6028810   8.3647310  32.6901990  11.2580050   5.8076590  20.2033210
  11.5328890   6.7155470  20.0752430  11.0690790   5.7439120  21.1395200
  11.1545390   3.7445580  25.1962640  10.7788990   2.9773510  24.7643930
  10.4248510   4.1268280  25.6837570  10.5445010   2.8917100  34.8302160
  10.3131100   2.6629850  33.9300110  10.8049560   3.8116650  34.7847050
  10.4296350   1.9703070  28.4969880  10.9533830   1.4765720  27.8660050
  11.0155770   2.1053430  29.2417450  10.6086070   2.0542940  32.0189430
   9.6588780   2.0206480  32.1334420  10.7899080   2.9643050  31.7839200
   9.2530660  12.5047500  26.8301210   9.8489730  12.1832070  26.1535630
   9.5108810  12.0319320  27.6214480  12.1203420  12.5119380  33.3812200
  11.6261700  12.9088250  32.6639330  11.5116710  11.8868590  33.7749480
   9.8042870  13.1542800  30.6598940   9.3445840  13.9058610  30.2856960
   9.1755330  12.4349270  30.6013740   2.9734090  12.3539530  30.6616050
   3.2611900  12.0993830  29.7849060   3.4857310  11.8016890  31.2521620
   3.0406450  13.2755630  38.0284250   3.9673760  13.0399900  38.0720210
   3.0256880  14.1027630  37.5470280  11.2751510  12.8181200  25.0258500
  11.4503700  12.1318940  24.3819420  10.5773080  13.3428250  24.6335170
   9.6084010  12.5025490  37.8525290  10.4009330  12.0074720  37.6451250
   9.9017160  13.1815630  38.4600900   5.7343670   3.3746430   8.7341340
   5.6537720   2.4601040   8.4633050   5.3208090   3.8713500   8.0281050
   3.8661710   5.1525450  10.6150610   3.0903810   4.6725890  10.9049180
   4.5174640   4.4731100  10.4406770   7.8869140   9.5585640   9.3949740
   7.4250670   8.7872880   9.7236910   8.6994690   9.5851710   9.9002190
   4.1132450  11.8443650   9.0153730   3.4943890  12.3001150   8.4448170
   4.9684230  11.9995110   8.6143430   3.3070700   7.8282640  10.6220770
   3.2378980   6.8872580  10.4609900   4.0690560   7.9184050  11.1943340
   4.9795800   6.7282890   6.4085640   4.3613070   7.1932340   5.8448360
   5.4919050   7.4210370   6.8255150   9.9724250   9.6878970  12.8173060
   9.2887770  10.3578080  12.8089730  10.5118540   9.8859620  12.0517920
   7.5082990  11.5323100  11.5318240   7.5210150  11.1285390  10.6640500
   6.9558210  12.3070390  11.4279670   8.8028410   8.2539320   6.6208410
   8.6924740   7.3113650   6.7457830   8.7996660   8.6154960   7.5071170
   6.9068430   6.4352940  12.8600850   7.3237220   6.2213050  12.0254310
   7.6308250   6.6925730  13.4309470   4.3448690   3.8804640   5.9770900
   3.4177970   3.8142020   6.2059370   4.4973510   4.8184770   5.8626140
  10.8530530   4.8340160  12.9517090  10.0249160   4.9033250  12.4767220
  11.4481010   5.4194470  12.4832920   8.3745980   5.4424940   6.4806150
   7.7558400   5.1044490   5.8332450   8.3570430   4.7984700   7.1885340
   8.5072640  11.6668810  14.5852940   8.0303200  12.4741000  14.3925550
   7.8234430  11.0147140  14.7379150   6.5510680   4.6811750   3.4878900
   6.9903960   3.8434180   3.3416720   7.2639100   5.3141150   3.5743040
   4.6606060   9.6207820   7.4560140   5.1001970  10.3632150   7.0415530
   4.5992950   9.8634390   8.3799100  12.0871850  11.4280750  19.6544330
  12.5631570  11.9063640  20.3333410  12.7079010  11.3598240  18.9289830
  11.4905100   8.6193600  16.8144340  11.6168160   8.3805480  15.8961520
  11.5326480   7.7878140  17.2866420   5.3521840  12.3221600  15.3839150
   5.8666510  12.2329610  16.1861580   4.5090920  12.6681300  15.6767060
   7.3276240  12.6076940   4.8123150   7.1677380  12.3179880   5.7104980
   7.1622950  11.8317070   4.2768380   7.0302370  10.1164500   3.3721150
   6.3367530  10.1141790   2.7123430   7.7725230   9.6923820   2.9415320
   6.5952300  11.7427210   7.4469640   7.0509250  10.9616590   7.7608260
   6.9344820  12.4534030   7.9910820   5.4997650   2.2328650  18.4751720
   5.8251060   1.3992400  18.1353950   6.2877980   2.7557170  18.6230050
   6.1385600   1.7746370   5.9692850   5.5394490   2.4982170   5.7856470
   6.6865210   1.7123150   5.1869300   5.3305610   3.0015660  12.0946910
   4.5986730   3.5102470  12.4437010   4.9329950   2.1845640  11.7935690
   2.0690970   3.7371640  12.2464810   2.4361100   3.2630210  12.9926150
   1.8796030   4.6113210  12.5873150   9.1460110   5.9806630  10.9542260
   9.8659230   6.4761920  10.5638370   8.9441930   5.3024520  10.3096130
   4.5278910   6.0515690  16.8411260   4.4616220   5.1311360  16.5868850
   3.8984050   6.1491130  17.5555900   3.3179030   7.9187930   4.0721980
   3.6594730   8.6630160   3.5765300   2.4891740   8.2319050   4.4346810
   4.4595640   8.8736260  16.5915060   4.4740180   7.9417220  16.3733970
   3.7520740   8.9596020  17.2304830   9.5932710   3.0576080   2.8613670
   9.5096430   3.4890300   2.0110110  10.3126900   3.5174430   3.2940490
  10.6706850   5.5143600  15.9383640   9.9455040   6.1072380  15.7413030
  11.1982310   5.5067140  15.1397010  10.6219960   9.9118340   5.5895800
   9.9796120   9.2573960   5.8639520  10.2350620  10.3173430   4.8136470
   6.2006440   7.2403770   9.4367490   6.5530260   6.6431900   8.7768860
   5.3168770   6.9148000   9.6075740   3.8929540  10.5153830  13.6855560
   4.5371760  10.7213210  14.3628980   4.2558980   9.7542230  13.2326410
   5.1661620   8.5186180  12.4033010   5.8083850   7.8179340  12.5165180
   5.6910970   9.2984620  12.2229900   6.9399240   9.3181080  15.6069070
   7.2755480   9.9047770  16.2846990   6.0199580   9.1873790  15.8366860
   8.5933590   6.7206740   3.7886310   8.3055290   7.1819430   4.5764190
   9.3885760   6.2604510   4.0570530   2.7687820   9.3672410  18.7757130
   2.4484690   8.6481650  19.3202820   2.0946180  10.0427480  18.8493190
   3.7961590  10.2761100   2.3815470   3.8973570  10.0725090   1.4517450
   2.8963330  10.0219380   2.5863250   8.4432280   3.7139300   8.6521650
   7.5022420   3.7289530   8.8269340   8.7576350   2.9275260   9.0981950
  10.4457860  10.8848150  10.3275910  10.5705280  11.7079320  10.7999720
  11.3123420  10.6738880   9.9800060   5.7598300   8.2705300  19.1354030
   5.1536460   8.2936900  18.3949780   5.4552410   7.5388340  19.6721280
   7.1898670  11.9985590  17.7463440   8.1420420  11.9143610  17.6963680
   7.0426890  12.6627300  18.4197230  10.0807870  11.3779800   3.2455350
   9.7949380  10.9644940   2.4309530   9.8827420  12.3067510   3.1255870
   4.7857830   6.4333110   2.2902950   4.2367930   6.8802410   2.9345690
   5.4077090   5.9282360   2.8140620   8.8392770   7.7875210  18.2225210
   9.5802240   8.1250970  17.7192670   8.0765450   7.9567270  17.6694980
   7.5138430   5.8390040  16.7580420   7.9279450   5.9935120  17.6070840
   6.5789430   5.9645260  16.9206200   7.9860600   3.1786200  18.7619570
   8.5681370   2.4238520  18.6740050   8.1622370   3.7093640  17.9851050
   4.6117560   3.5226700  16.1114190   4.7313770   2.9267840  16.8509030
   5.4711560   3.5596390  15.6915490   6.9505460   4.0763890  14.6876700
   6.4240680   4.6006510  14.0841840   7.2936800   4.7091280  15.3186430
   2.9823290  13.3314740  16.1020730   2.9081990  14.2349880  16.4093100
   2.0802130  13.0126640  16.0742800   3.5308620  12.4973250   3.7247090
   4.4259410  12.8358220   3.7465850   3.5626250  11.7752660   3.0971370
  10.5102970  11.0276920  16.4313290   9.9104960  11.0869480  15.6877210
  10.6396870  10.0881900  16.5610140  11.7504420   8.7694740   1.7683000
  10.9197380   8.8371390   2.2390230  11.9276250   9.6598860   1.4649860
  11.2060880   5.5142220   4.2717200  11.9679790   6.0838870   4.3776890
  11.2215250   4.9469420   5.0425510  12.2120850   6.3692320   9.1159130
  12.5829680   5.5859640   8.7095100  12.8522780   7.0581420   8.9376430
   9.1954610   7.7528900  14.5289450   8.3814450   8.1826060  14.7915240
   9.6028810   8.3647310  13.9158500  11.1545390   3.7445580   6.4219150
  10.7788990   2.9773510   5.9900440  10.4248510   4.1268280   6.9094080
  10.5445010   2.8917100  16.0558670  10.3131100   2.6629850  15.1556620
  10.8049560   3.8116650  16.0103560  10.4296350   1.9703070   9.7226390
  10.9533830   1.4765720   9.0916560  11.0155770   2.1053430  10.4673960
  10.6086070   2.0542940  13.2445940   9.6588780   2.0206480  13.3590930
  10.7899080   2.9643050  13.0095710   9.2530660  12.5047500   8.0557720
   9.8489730  12.1832070   7.3792140   9.5108810  12.0319320   8.8470990
  12.1203420  12.5119380  14.6068710  11.6261700  12.9088250  13.8895840
  11.5116710  11.8868590  15.0005990   9.8042870  13.1542800  11.8855450
   9.3445840  13.9058610  11.5113470   9.1755330  12.4349270  11.8270250
   2.9734090  12.3539530  11.8872560   3.2611900  12.0993830  11.0105570
   3.4857310  11.8016890  12.4778130   3.0406450  13.2755630  19.2540760
   3.9673760  13.0399900  19.2976720   3.0256880  14.1027630  18.7726790
  11.2751510  12.8181200   6.2515010  11.4503700  12.1318940   5.6075930
  10.5773080  13.3428250   5.8591680   9.6084010  12.5025490  19.0781800
  10.4009330  12.0074720  18.8707760   9.9017160  13.1815630  19.6857410
  62.2824570  64.7435120  58.3352620  90.0000000  90.0000000  90.0000000
